                         Program Version 4.2.1 -  RELEASE  -
|  1> #end
|  2> %method
|  3> 	method HF
|  4> 	runtyp OPT
|  5> end
|  6> %basis
|  7> 	basis "6-311++G**"
|  8> end
|  9> ! NumFreq
| 10> %elprop
| 11> 	Polar 1
| 12> end
| 13> %output
| 14> 	XYZFile true
| 15> 	Print [ P_AtPopMO_L ] 1
| 16> 	Print [ P_OrbPopMO_L ] 1
| 17> end
| 18> %coords
| 19> 	CTyp xyz
| 20> 	Charge 0
| 21> 	Mult 1
| 22> 	Units Angs
| 23> 	coords
| 24> 	N       -6.4382077600      2.3423568560      0.0380982609
| 25> 	H       -5.4208800106      2.3479326254     -0.0199892628
| 26> 	H       -6.7498062077      1.5827316221     -0.5654221700
| 27> 	H       -6.7498091349      3.2028874120     -0.4099561403
| 28> 	end
| 29> end
| 30>
| 31>
| 32>                          ****END OF INPUT****
 Total Charge           Charge          ....    0
 Multiplicity           Mult            ....    1
 Number of Electrons    NEL             ....   10
FINAL SINGLE POINT ENERGY       -56.213750020435
FINAL SINGLE POINT ENERGY       -56.214577733568
FINAL SINGLE POINT ENERGY       -56.214702480881
FINAL SINGLE POINT ENERGY       -56.214754069542
                    ***********************HURRAY********************

CARTESIAN COORDINATES (ANGSTROEM)
---------------------------------
  N     -6.427574    2.345238    0.008070
  H     -5.427426    2.347075   -0.011048
  H     -6.751850    1.584402   -0.554622
  H     -6.751853    3.199194   -0.399670

 Multiplicity           Mult            ....    1
 Number of Electrons    NEL             ....   10
 Basis Dimension        Dim             ....   43

ORBITAL ENERGIES
----------------

  NO   OCC          E(Eh)            E(eV)
   0   2.0000     -15.536554      -422.7711
   1   2.0000      -1.147263       -31.2186
   2   2.0000      -0.637790       -17.3551
   3   2.0000      -0.637758       -17.3543
   4   2.0000      -0.423850       -11.5336
   5   0.0000       0.043662         1.1881
   6   0.0000       0.073794         2.0080
   7   0.0000       0.073796         2.0081
   8   0.0000       0.180092         4.9005
   9   0.0000       0.219687         5.9780

MULLIKEN ATOMIC CHARGES
-----------------------
   0 N :   -0.681475
   1 H :    0.227149
   2 H :    0.227163
   3 H :    0.227163
Sum of atomic charges:   -0.0000000

LOEWDIN ATOMIC CHARGES
----------------------
   0 N :   -0.178039
   1 H :    0.059347
   2 H :    0.059346
   3 H :    0.059346

  Mayer bond orders larger than 0.100000
B(  0-N ,  1-H ) :   0.9620 B(  0-N ,  2-H ) :   0.9620 B(  0-N ,  3-H ) :   0.9620

FINAL SINGLE POINT ENERGY       -56.214754350895

DIPOLE MOMENT
-------------
                                X             Y             Z
Electronic contribution:     -0.04566      -0.01232       0.12838
Nuclear contribution   :      0.27117       0.07324      -0.76321
                        -----------------------------------------
Total Dipole Moment    :      0.22552       0.06092      -0.63483
                        -----------------------------------------
Magnitude (a.u.)       :      0.67644
Magnitude (Debye)      :      1.71938

VIBRATIONAL FREQUENCIES
-----------------------

Scaling factor for frequencies =  1.000000000 (already applied!)

   0:         0.00 cm**-1
   1:         0.00 cm**-1
   2:         0.00 cm**-1
   3:         0.00 cm**-1
   4:         0.00 cm**-1
   5:         0.00 cm**-1
   6:      1095.22 cm**-1
   7:      1792.45 cm**-1
   8:      1792.71 cm**-1
   9:      3696.58 cm**-1
  10:      3825.49 cm**-1
  11:      3825.76 cm**-1

IR SPECTRUM
-----------

 Mode    freq (cm**-1)   T**2         TX         TY         TZ
-------------------------------------------------------------------
   6:      1095.22  233.697832  (  5.105613   1.380727 -14.343087)
   7:      1792.45   27.693294  ( -0.474599  -5.198938  -0.662642)
   8:      1792.71   27.723731  ( -4.942621   0.668091  -1.687567)
   9:      3696.58    0.212006  ( -0.157793  -0.042246   0.430491)
  10:      3825.49    5.337931  ( -2.173437   0.224714  -0.750737)
  11:      3825.76    5.380662  ( -0.143456  -2.299386  -0.270008)

--------------------------
THERMOCHEMISTRY AT 298.15K
--------------------------

Temperature         ... 298.15 K
Pressure            ... 1.00 atm
Total Mass          ... 17.03 AMU

Throughout the following assumptions are being made:
  (1) The electronic state is orbitally nondegenerate
  (2) There are no thermally accessible electronically excited states
  (3) Hindered rotations indicated by low frequency modes are not
      treated as such but are treated as vibrations and this may
      cause some error
  (4) All equations used are the standard statistical mechanics
      equations for an ideal gas
  (5) All vibrations are strictly harmonic

freq.    1095.22  E(vib)   ...       0.02
freq.    1792.45  E(vib)   ...       0.00
freq.    1792.71  E(vib)   ...       0.00
freq.    3696.58  E(vib)   ...       0.00
freq.    3825.49  E(vib)   ...       0.00
freq.    3825.76  E(vib)   ...       0.00

------------
INNER ENERGY
------------

The inner energy is: U= E(el) + E(ZPE) + E(vib) + E(rot) + E(trans)
    E(el)   - is the total energy from the electronic structure calculation
              = E(kin-el) + E(nuc-el) + E(el-el) + E(nuc-nuc)
    E(ZPE)  - the the zero temperature vibrational energy from the frequency calculation
    E(vib)  - the the finite temperature correction to E(ZPE) due to population
              of excited vibrational states
    E(rot)  - is the rotational thermal energy
    E(trans)- is the translational thermal energy

Summary of contributions to the inner energy U:
Electronic energy                ...    -56.21475435 Eh
Zero point energy                ...      0.03651496 Eh      22.91 kcal/mol
Thermal vibrational correction   ...      0.00002827 Eh       0.02 kcal/mol
Thermal rotational correction    ...      0.00141627 Eh       0.89 kcal/mol
Thermal translational correction ...      0.00141627 Eh       0.89 kcal/mol
-----------------------------------------------------------------------
Total thermal energy                    -56.17537858 Eh

Summary of corrections to the electronic energy:
(perhaps to be used in another calculation)
Total thermal correction                  0.00286082 Eh       1.80 kcal/mol
Non-thermal (ZPE) correction              0.03651496 Eh      22.91 kcal/mol
-----------------------------------------------------------------------
Total correction                          0.03937577 Eh      24.71 kcal/mol

--------
ENTHALPY
--------

The enthalpy is H = U + kB*T
                kB is Boltzmann's constant
Total free energy                 ...    -56.17537858 Eh
Thermal Enthalpy correction       ...      0.00094421 Eh       0.59 kcal/mol
-----------------------------------------------------------------------
Total Enthalpy                    ...    -56.17443437 Eh

Note: Rotational entropy computed according to Herzberg
Infrared and Raman Spectra, Chapter V,1, Van Nostrand Reinhold, 1945
Point Group:  Cs, Symmetry Number:   1
Rotational constants in cm-1:    10.320967    10.319598     6.355617

Vibrational entropy computed according to the QRRHO of S. Grimme
Chem.Eur.J. 2012 18 9955

-------
ENTROPY
-------

The entropy contributions are T*S = T*(S(el)+S(vib)+S(rot)+S(trans))
     S(el)   - electronic entropy
     S(vib)  - vibrational entropy
     S(rot)  - rotational entropy
     S(trans)- translational entropy
The entropies will be listed as mutliplied by the temperature to get
units of energy

Electronic entropy                ...      0.00000000 Eh      0.00 kcal/mol
Vibrational entropy               ...      0.00003341 Eh      0.02 kcal/mol
Rotational entropy                ...      0.00643393 Eh      4.04 kcal/mol
Translational entropy             ...      0.01636425 Eh     10.27 kcal/mol
-----------------------------------------------------------------------
Final entropy term                ...      0.02283160 Eh     14.33 kcal/mol

In case the symmetry of your molecule has not been determined correctly
or in case you have a reason to use a different symmetry number we print
out the resulting rotational entropy values for sn=1,12 :
 --------------------------------------------------------
|  sn= 1 | S(rot)=       0.00643393 Eh      4.04 kcal/mol|
|  sn= 2 | S(rot)=       0.00577948 Eh      3.63 kcal/mol|
|  sn= 3 | S(rot)=       0.00539664 Eh      3.39 kcal/mol|
|  sn= 4 | S(rot)=       0.00512502 Eh      3.22 kcal/mol|
|  sn= 5 | S(rot)=       0.00491433 Eh      3.08 kcal/mol|
|  sn= 6 | S(rot)=       0.00474219 Eh      2.98 kcal/mol|
|  sn= 7 | S(rot)=       0.00459664 Eh      2.88 kcal/mol|
|  sn= 8 | S(rot)=       0.00447056 Eh      2.81 kcal/mol|
|  sn= 9 | S(rot)=       0.00435935 Eh      2.74 kcal/mol|
|  sn=10 | S(rot)=       0.00425987 Eh      2.67 kcal/mol|
|  sn=11 | S(rot)=       0.00416988 Eh      2.62 kcal/mol|
|  sn=12 | S(rot)=       0.00408773 Eh      2.57 kcal/mol|
 --------------------------------------------------------

-------------------
GIBBS FREE ENERGY
-------------------

The Gibbs free energy is G = H - T*S

Total enthalpy                    ...    -56.17443437 Eh
Total entropy correction          ...     -0.02283160 Eh    -14.33 kcal/mol
-----------------------------------------------------------------------
Final Gibbs free energy         ...    -56.19726596 Eh

For completeness - the Gibbs free energy minus the electronic energy
G-E(el)                           ...      0.01748839 Eh     10.97 kcal/mol

                             ****ORCA TERMINATED NORMALLY****
TOTAL RUN TIME: 0 days 0 hours 2 minutes 4 seconds 58 msec
