                         Program Version 4.2.1 -  RELEASE  -
|  1> #end
|  2> %method
|  3> 	method HF
|  4> 	runtyp OPT
|  5> end
|  6> %basis
|  7> 	basis "6-311G"
|  8> end
|  9> ! NumFreq
| 10> %elprop
| 11> 	Polar 1
| 12> end
| 13> %output
| 14> 	XYZFile true
| 15> 	Print [ P_AtPopMO_L ] 1
| 16> 	Print [ P_OrbPopMO_L ] 1
| 17> end
| 18> %coords
| 19> 	CTyp xyz
| 20> 	Charge 0
| 21> 	Mult 1
| 22> 	Units Angs
| 23> 	coords
| 24> 	N       -6.4382077600      2.3423568560      0.0380982609
| 25> 	H       -5.4208800106      2.3479326254     -0.0199892628
| 26> 	H       -6.7498062077      1.5827316221     -0.5654221700
| 27> 	H       -6.7498091349      3.2028874120     -0.4099561403
| 28> 	end
| 29> end
| 30>
| 31>
| 32>                          ****END OF INPUT****
 Total Charge           Charge          ....    0
 Multiplicity           Mult            ....    1
 Number of Electrons    NEL             ....   10
FINAL SINGLE POINT ENERGY       -56.176695996437
FINAL SINGLE POINT ENERGY       -56.179415010557
FINAL SINGLE POINT ENERGY       -56.180864723706
FINAL SINGLE POINT ENERGY       -56.181056655442
FINAL SINGLE POINT ENERGY       -56.181083567436
FINAL SINGLE POINT ENERGY       -56.181084777991
                    ***********************HURRAY********************

CARTESIAN COORDINATES (ANGSTROEM)
---------------------------------
  N     -6.399007    2.352948   -0.072276
  H     -5.411982    2.343673    0.024406
  H     -6.773856    1.559470   -0.534361
  H     -6.773859    3.219818   -0.375038

 Multiplicity           Mult            ....    1
 Number of Electrons    NEL             ....   10
 Basis Dimension        Dim             ....   22

ORBITAL ENERGIES
----------------

  NO   OCC          E(Eh)            E(eV)
   0   2.0000     -15.517323      -422.2478
   1   2.0000      -1.137760       -30.9600
   2   2.0000      -0.642088       -17.4721
   3   2.0000      -0.642064       -17.4715
   4   2.0000      -0.398847       -10.8532
   5   0.0000       0.159026         4.3273
   6   0.0000       0.230758         6.2793
   7   0.0000       0.230761         6.2793
   8   0.0000       0.534200        14.5363
   9   0.0000       0.534229        14.5371

MULLIKEN ATOMIC CHARGES
-----------------------
   0 N :   -0.940705
   1 H :    0.313562
   2 H :    0.313572
   3 H :    0.313572
Sum of atomic charges:   -0.0000000

LOEWDIN ATOMIC CHARGES
----------------------
   0 N :   -0.549851
   1 H :    0.183280
   2 H :    0.183286
   3 H :    0.183286

  Mayer bond orders larger than 0.100000
B(  0-N ,  1-H ) :   0.8673 B(  0-N ,  2-H ) :   0.8673 B(  0-N ,  3-H ) :   0.8673

FINAL SINGLE POINT ENERGY       -56.181084793192

DIPOLE MOMENT
-------------
                                X             Y             Z
Electronic contribution:      0.01207       0.00327      -0.03411
Nuclear contribution   :      0.18304       0.04945      -0.51534
                        -----------------------------------------
Total Dipole Moment    :      0.19511       0.05272      -0.54944
                        -----------------------------------------
Magnitude (a.u.)       :      0.58544
Magnitude (Debye)      :      1.48806

VIBRATIONAL FREQUENCIES
-----------------------

Scaling factor for frequencies =  1.000000000 (already applied!)

   0:         0.00 cm**-1
   1:         0.00 cm**-1
   2:         0.00 cm**-1
   3:         0.00 cm**-1
   4:         0.00 cm**-1
   5:         0.00 cm**-1
   6:       735.86 cm**-1
   7:      1833.30 cm**-1
   8:      1833.42 cm**-1
   9:      3728.00 cm**-1
  10:      3920.01 cm**-1
  11:      3920.32 cm**-1

IR SPECTRUM
-----------

 Mode    freq (cm**-1)   T**2         TX         TY         TZ
-------------------------------------------------------------------
   6:       735.86  478.718497  ( -7.302248  -1.974597  20.530383)
   7:      1833.30   47.687717  ( -0.819044  -6.792372  -0.938385)
   8:      1833.42   47.723195  (  6.466318  -1.083230   2.176358)
   9:      3728.00    0.062641  (  0.076453   0.021775  -0.237323)
  10:      3920.01    4.128730  (  1.913147  -0.179495   0.660591)
  11:      3920.32    4.177423  (  0.109496   2.027874   0.230566)

--------------------------
THERMOCHEMISTRY AT 298.15K
--------------------------

Temperature         ... 298.15 K
Pressure            ... 1.00 atm
Total Mass          ... 17.03 AMU

Throughout the following assumptions are being made:
  (1) The electronic state is orbitally nondegenerate
  (2) There are no thermally accessible electronically excited states
  (3) Hindered rotations indicated by low frequency modes are not
      treated as such but are treated as vibrations and this may
      cause some error
  (4) All equations used are the standard statistical mechanics
      equations for an ideal gas
  (5) All vibrations are strictly harmonic

freq.     735.86  E(vib)   ...       0.06
freq.    1833.30  E(vib)   ...       0.00
freq.    1833.42  E(vib)   ...       0.00
freq.    3728.00  E(vib)   ...       0.00
freq.    3920.01  E(vib)   ...       0.00
freq.    3920.32  E(vib)   ...       0.00

------------
INNER ENERGY
------------

The inner energy is: U= E(el) + E(ZPE) + E(vib) + E(rot) + E(trans)
    E(el)   - is the total energy from the electronic structure calculation
              = E(kin-el) + E(nuc-el) + E(el-el) + E(nuc-nuc)
    E(ZPE)  - the the zero temperature vibrational energy from the frequency calculation
    E(vib)  - the the finite temperature correction to E(ZPE) due to population
              of excited vibrational states
    E(rot)  - is the rotational thermal energy
    E(trans)- is the translational thermal energy

Summary of contributions to the inner energy U:
Electronic energy                ...    -56.18108479 Eh
Zero point energy                ...      0.03638440 Eh      22.83 kcal/mol
Thermal vibrational correction   ...      0.00010147 Eh       0.06 kcal/mol
Thermal rotational correction    ...      0.00141627 Eh       0.89 kcal/mol
Thermal translational correction ...      0.00141627 Eh       0.89 kcal/mol
-----------------------------------------------------------------------
Total thermal energy                    -56.14176639 Eh

Summary of corrections to the electronic energy:
(perhaps to be used in another calculation)
Total thermal correction                  0.00293401 Eh       1.84 kcal/mol
Non-thermal (ZPE) correction              0.03638440 Eh      22.83 kcal/mol
-----------------------------------------------------------------------
Total correction                          0.03931841 Eh      24.67 kcal/mol

--------
ENTHALPY
--------

The enthalpy is H = U + kB*T
                kB is Boltzmann's constant
Total free energy                 ...    -56.14176639 Eh
Thermal Enthalpy correction       ...      0.00094421 Eh       0.59 kcal/mol
-----------------------------------------------------------------------
Total Enthalpy                    ...    -56.14082218 Eh

Note: Rotational entropy computed according to Herzberg
Infrared and Raman Spectra, Chapter V,1, Van Nostrand Reinhold, 1945
Point Group:  Cs, Symmetry Number:   1
Rotational constants in cm-1:    10.931582    10.930414     6.011503

Vibrational entropy computed according to the QRRHO of S. Grimme
Chem.Eur.J. 2012 18 9955

-------
ENTROPY
-------

The entropy contributions are T*S = T*(S(el)+S(vib)+S(rot)+S(trans))
     S(el)   - electronic entropy
     S(vib)  - vibrational entropy
     S(rot)  - rotational entropy
     S(trans)- translational entropy
The entropies will be listed as mutliplied by the temperature to get
units of energy

Electronic entropy                ...      0.00000000 Eh      0.00 kcal/mol
Vibrational entropy               ...      0.00012932 Eh      0.08 kcal/mol
Rotational entropy                ...      0.00640593 Eh      4.02 kcal/mol
Translational entropy             ...      0.01636425 Eh     10.27 kcal/mol
-----------------------------------------------------------------------
Final entropy term                ...      0.02289950 Eh     14.37 kcal/mol

In case the symmetry of your molecule has not been determined correctly
or in case you have a reason to use a different symmetry number we print
out the resulting rotational entropy values for sn=1,12 :
 --------------------------------------------------------
|  sn= 1 | S(rot)=       0.00640593 Eh      4.02 kcal/mol|
|  sn= 2 | S(rot)=       0.00575147 Eh      3.61 kcal/mol|
|  sn= 3 | S(rot)=       0.00536864 Eh      3.37 kcal/mol|
|  sn= 4 | S(rot)=       0.00509702 Eh      3.20 kcal/mol|
|  sn= 5 | S(rot)=       0.00488633 Eh      3.07 kcal/mol|
|  sn= 6 | S(rot)=       0.00471418 Eh      2.96 kcal/mol|
|  sn= 7 | S(rot)=       0.00456864 Eh      2.87 kcal/mol|
|  sn= 8 | S(rot)=       0.00444256 Eh      2.79 kcal/mol|
|  sn= 9 | S(rot)=       0.00433135 Eh      2.72 kcal/mol|
|  sn=10 | S(rot)=       0.00423187 Eh      2.66 kcal/mol|
|  sn=11 | S(rot)=       0.00414188 Eh      2.60 kcal/mol|
|  sn=12 | S(rot)=       0.00405973 Eh      2.55 kcal/mol|
 --------------------------------------------------------

-------------------
GIBBS FREE ENERGY
-------------------

The Gibbs free energy is G = H - T*S

Total enthalpy                    ...    -56.14082218 Eh
Total entropy correction          ...     -0.02289950 Eh    -14.37 kcal/mol
-----------------------------------------------------------------------
Final Gibbs free energy         ...    -56.16372168 Eh

For completeness - the Gibbs free energy minus the electronic energy
G-E(el)                           ...      0.01736311 Eh     10.90 kcal/mol

                             ****ORCA TERMINATED NORMALLY****
TOTAL RUN TIME: 0 days 0 hours 1 minutes 41 seconds 56 msec
