                         Program Version 4.2.1 -  RELEASE  -
|  1> #end
|  2> %method
|  3> 	method HF
|  4> 	runtyp OPT
|  5> end
|  6> %basis
|  7> 	basis "6-31G"
|  8> end
|  9> ! NumFreq
| 10> %elprop
| 11> 	Polar 1
| 12> end
| 13> %output
| 14> 	XYZFile true
| 15> 	Print [ P_AtPopMO_L ] 1
| 16> 	Print [ P_OrbPopMO_L ] 1
| 17> end
| 18> %coords
| 19> 	CTyp xyz
| 20> 	Charge 0
| 21> 	Mult 1
| 22> 	Units Angs
| 23> 	coords
| 24> 	N       -6.4382077600      2.3423568560      0.0380982609
| 25> 	H       -5.4208800106      2.3479326254     -0.0199892628
| 26> 	H       -6.7498062077      1.5827316221     -0.5654221700
| 27> 	H       -6.7498091349      3.2028874120     -0.4099561403
| 28> 	end
| 29> end
| 30>
| 31>
| 32>                          ****END OF INPUT****
 Total Charge           Charge          ....    0
 Multiplicity           Mult            ....    1
 Number of Electrons    NEL             ....   10
FINAL SINGLE POINT ENERGY       -56.160031609223
FINAL SINGLE POINT ENERGY       -56.163200443704
FINAL SINGLE POINT ENERGY       -56.165150064158
FINAL SINGLE POINT ENERGY       -56.165451925649
FINAL SINGLE POINT ENERGY       -56.165515024903
FINAL SINGLE POINT ENERGY       -56.165521120859
                    ***********************HURRAY********************

CARTESIAN COORDINATES (ANGSTROEM)
---------------------------------
  N     -6.389078    2.355624   -0.100165
  H     -5.407287    2.342517    0.036448
  H     -6.781167    1.551440   -0.527135
  H     -6.781170    3.226327   -0.366418

 Multiplicity           Mult            ....    1
 Number of Electrons    NEL             ....   10
 Basis Dimension        Dim             ....   15

ORBITAL ENERGIES
----------------

  NO   OCC          E(Eh)            E(eV)
   0   2.0000     -15.517832      -422.2617
   1   2.0000      -1.130682       -30.7674
   2   2.0000      -0.641158       -17.4468
   3   2.0000      -0.641150       -17.4466
   4   2.0000      -0.391043       -10.6408
   5   0.0000       0.228986         6.2310
   6   0.0000       0.328167         8.9299
   7   0.0000       0.328167         8.9299
   8   0.0000       0.956260        26.0211
   9   0.0000       0.956281        26.0217

MULLIKEN ATOMIC CHARGES
-----------------------
   0 N :   -0.982214
   1 H :    0.327402
   2 H :    0.327406
   3 H :    0.327406
Sum of atomic charges:   -0.0000000

LOEWDIN ATOMIC CHARGES
----------------------
   0 N :   -0.663294
   1 H :    0.221096
   2 H :    0.221099
   3 H :    0.221099

  Mayer bond orders larger than 0.100000
B(  0-N ,  1-H ) :   0.8622 B(  0-N ,  2-H ) :   0.8622 B(  0-N ,  3-H ) :   0.8622

FINAL SINGLE POINT ENERGY       -56.165521328210

DIPOLE MOMENT
-------------
                                X             Y             Z
Electronic contribution:      0.02884       0.00780      -0.08129
Nuclear contribution   :      0.15241       0.04119      -0.42930
                        -----------------------------------------
Total Dipole Moment    :      0.18125       0.04899      -0.51059
                        -----------------------------------------
Magnitude (a.u.)       :      0.54401
Magnitude (Debye)      :      1.38278

VIBRATIONAL FREQUENCIES
-----------------------

Scaling factor for frequencies =  1.000000000 (already applied!)

   0:         0.00 cm**-1
   1:         0.00 cm**-1
   2:         0.00 cm**-1
   3:         0.00 cm**-1
   4:         0.00 cm**-1
   5:         0.00 cm**-1
   6:       599.01 cm**-1
   7:      1814.30 cm**-1
   8:      1814.36 cm**-1
   9:      3779.15 cm**-1
  10:      3983.12 cm**-1
  11:      3983.29 cm**-1

IR SPECTRUM
-----------

 Mode    freq (cm**-1)   T**2         TX         TY         TZ
-------------------------------------------------------------------
   6:       599.01  644.559248  ( -8.463524  -2.289572  23.826160)
   7:      1814.30   46.939113  ( -0.183205  -6.811251  -0.715832)
   8:      1814.36   46.852025  (  6.452761  -0.411858   2.245947)
   9:      3779.15    0.564546  ( -0.245559  -0.066778   0.706956)
  10:      3983.12   15.956309  ( -3.750770   0.497323  -1.280899)
  11:      3983.29   16.033053  (  0.352440   3.956927   0.501562)

--------------------------
THERMOCHEMISTRY AT 298.15K
--------------------------

Temperature         ... 298.15 K
Pressure            ... 1.00 atm
Total Mass          ... 17.03 AMU

Throughout the following assumptions are being made:
  (1) The electronic state is orbitally nondegenerate
  (2) There are no thermally accessible electronically excited states
  (3) Hindered rotations indicated by low frequency modes are not
      treated as such but are treated as vibrations and this may
      cause some error
  (4) All equations used are the standard statistical mechanics
      equations for an ideal gas
  (5) All vibrations are strictly harmonic

freq.     599.01  E(vib)   ...       0.10
freq.    1814.30  E(vib)   ...       0.00
freq.    1814.36  E(vib)   ...       0.00
freq.    3779.15  E(vib)   ...       0.00
freq.    3983.12  E(vib)   ...       0.00
freq.    3983.29  E(vib)   ...       0.00

------------
INNER ENERGY
------------

The inner energy is: U= E(el) + E(ZPE) + E(vib) + E(rot) + E(trans)
    E(el)   - is the total energy from the electronic structure calculation
              = E(kin-el) + E(nuc-el) + E(el-el) + E(nuc-nuc)
    E(ZPE)  - the the zero temperature vibrational energy from the frequency calculation
    E(vib)  - the the finite temperature correction to E(ZPE) due to population
              of excited vibrational states
    E(rot)  - is the rotational thermal energy
    E(trans)- is the translational thermal energy

Summary of contributions to the inner energy U:
Electronic energy                ...    -56.16552133 Eh
Zero point energy                ...      0.03638971 Eh      22.83 kcal/mol
Thermal vibrational correction   ...      0.00016312 Eh       0.10 kcal/mol
Thermal rotational correction    ...      0.00141627 Eh       0.89 kcal/mol
Thermal translational correction ...      0.00141627 Eh       0.89 kcal/mol
-----------------------------------------------------------------------
Total thermal energy                    -56.12613596 Eh

Summary of corrections to the electronic energy:
(perhaps to be used in another calculation)
Total thermal correction                  0.00299566 Eh       1.88 kcal/mol
Non-thermal (ZPE) correction              0.03638971 Eh      22.83 kcal/mol
-----------------------------------------------------------------------
Total correction                          0.03938537 Eh      24.71 kcal/mol

--------
ENTHALPY
--------

The enthalpy is H = U + kB*T
                kB is Boltzmann's constant
Total free energy                 ...    -56.12613596 Eh
Thermal Enthalpy correction       ...      0.00094421 Eh       0.59 kcal/mol
-----------------------------------------------------------------------
Total Enthalpy                    ...    -56.12519175 Eh

Note: Rotational entropy computed according to Herzberg
Infrared and Raman Spectra, Chapter V,1, Van Nostrand Reinhold, 1945
Point Group:  Cs, Symmetry Number:   1
Rotational constants in cm-1:    11.061527    11.061039     5.907382

Vibrational entropy computed according to the QRRHO of S. Grimme
Chem.Eur.J. 2012 18 9955

-------
ENTROPY
-------

The entropy contributions are T*S = T*(S(el)+S(vib)+S(rot)+S(trans))
     S(el)   - electronic entropy
     S(vib)  - vibrational entropy
     S(rot)  - rotational entropy
     S(trans)- translational entropy
The entropies will be listed as mutliplied by the temperature to get
units of energy

Electronic entropy                ...      0.00000000 Eh      0.00 kcal/mol
Vibrational entropy               ...      0.00021760 Eh      0.14 kcal/mol
Rotational entropy                ...      0.00640299 Eh      4.02 kcal/mol
Translational entropy             ...      0.01636425 Eh     10.27 kcal/mol
-----------------------------------------------------------------------
Final entropy term                ...      0.02298484 Eh     14.42 kcal/mol

In case the symmetry of your molecule has not been determined correctly
or in case you have a reason to use a different symmetry number we print
out the resulting rotational entropy values for sn=1,12 :
 --------------------------------------------------------
|  sn= 1 | S(rot)=       0.00640299 Eh      4.02 kcal/mol|
|  sn= 2 | S(rot)=       0.00574853 Eh      3.61 kcal/mol|
|  sn= 3 | S(rot)=       0.00536570 Eh      3.37 kcal/mol|
|  sn= 4 | S(rot)=       0.00509408 Eh      3.20 kcal/mol|
|  sn= 5 | S(rot)=       0.00488339 Eh      3.06 kcal/mol|
|  sn= 6 | S(rot)=       0.00471124 Eh      2.96 kcal/mol|
|  sn= 7 | S(rot)=       0.00456570 Eh      2.87 kcal/mol|
|  sn= 8 | S(rot)=       0.00443962 Eh      2.79 kcal/mol|
|  sn= 9 | S(rot)=       0.00432841 Eh      2.72 kcal/mol|
|  sn=10 | S(rot)=       0.00422893 Eh      2.65 kcal/mol|
|  sn=11 | S(rot)=       0.00413894 Eh      2.60 kcal/mol|
|  sn=12 | S(rot)=       0.00405679 Eh      2.55 kcal/mol|
 --------------------------------------------------------

-------------------
GIBBS FREE ENERGY
-------------------

The Gibbs free energy is G = H - T*S

Total enthalpy                    ...    -56.12519175 Eh
Total entropy correction          ...     -0.02298484 Eh    -14.42 kcal/mol
-----------------------------------------------------------------------
Final Gibbs free energy         ...    -56.14817659 Eh

For completeness - the Gibbs free energy minus the electronic energy
G-E(el)                           ...      0.01734474 Eh     10.88 kcal/mol

                             ****ORCA TERMINATED NORMALLY****
TOTAL RUN TIME: 0 days 0 hours 1 minutes 38 seconds 329 msec
