                         Program Version 4.2.1 -  RELEASE  -
|  1> ! PBE
|  2>
|  3> %method
|  4>         method DFT
|  5>         runtyp OPT
|  6> end
|  7>
|  8> %basis
|  9>         basis "def2-TZVP"
| 10> end
| 11> ! NumFreq
| 12> %output
| 13>         XYZFile true
| 14> end
| 15> %coords
| 16>         CTyp xyz
| 17>         Charge 0
| 18>         Mult 2
| 19>         Units Angs
| 20>         coords
| 21>         P       -1.3964703605      0.5346218729     -0.0392481365
| 22> 	H        0.1725606238      0.5123737189     -0.0821591799
| 23> 	H       -1.9650463708      1.2081038033      1.2597276053
| 24>         end
| 25> end
| 26>
| 27>                          ****END OF INPUT****
 Total Charge           Charge          ....    0
 Multiplicity           Mult            ....    2
 Number of Electrons    NEL             ....   17
FINAL SINGLE POINT ENERGY      -342.326833038663
FINAL SINGLE POINT ENERGY      -342.343127854413
FINAL SINGLE POINT ENERGY      -342.347799613074
FINAL SINGLE POINT ENERGY      -342.348347197736
FINAL SINGLE POINT ENERGY      -342.348368024325
FINAL SINGLE POINT ENERGY      -342.348368867703
                    ***********************HURRAY********************

CARTESIAN COORDINATES (ANGSTROEM)
---------------------------------
  P     -1.451207    0.499257   -0.107459
  H     -0.034028    0.606264    0.098932
  H     -1.703721    1.149579    1.146847

 Multiplicity           Mult            ....    2
 Number of Electrons    NEL             ....   17
 Basis Dimension        Dim             ....   49

ORBITAL ENERGIES
----------------
                 SPIN UP ORBITALS
  NO   OCC          E(Eh)            E(eV)
   0   1.0000     -76.315280     -2076.6443
   1   1.0000      -6.316573      -171.8827
   2   1.0000      -4.536786      -123.4522
   3   1.0000      -4.531063      -123.2965
   4   1.0000      -4.529283      -123.2481
   5   1.0000      -0.576140       -15.6776
   6   1.0000      -0.346248        -9.4219
   7   1.0000      -0.277627        -7.5546
   8   1.0000      -0.220202        -5.9920
   9   0.0000      -0.012055        -0.3280
  10   0.0000       0.007562         0.2058
  11   0.0000       0.148227         4.0335
  12   0.0000       0.158854         4.3226
  13   0.0000       0.200382         5.4527

                 SPIN DOWN ORBITALS
  NO   OCC          E(Eh)            E(eV)
   0   1.0000     -76.311476     -2076.5408
   1   1.0000      -6.312619      -171.7751
   2   1.0000      -4.528469      -123.2259
   3   1.0000      -4.526920      -123.1838
   4   1.0000      -4.525781      -123.1528
   5   1.0000      -0.550869       -14.9899
   6   1.0000      -0.339890        -9.2489
   7   1.0000      -0.264918        -7.2088
   8   0.0000      -0.151540        -4.1236
   9   0.0000      -0.006064        -0.1650
  10   0.0000       0.020359         0.5540
  11   0.0000       0.163156         4.4397
  12   0.0000       0.179077         4.8729

MULLIKEN ATOMIC CHARGES AND SPIN POPULATIONS
--------------------------------------------
   0 P :   -0.156076    1.061542
   1 H :    0.079701   -0.030588
   2 H :    0.076376   -0.030954
Sum of atomic charges         :    0.0000000

LOEWDIN ATOMIC CHARGES AND SPIN POPULATIONS
-------------------------------------------
   0 P :    0.012432    1.014420
   1 H :   -0.006269   -0.007190
   2 H :   -0.006163   -0.007230

  Mayer bond orders larger than 0.100000
B(  0-P ,  1-H ) :   0.9674 B(  0-P ,  2-H ) :   0.9680

FINAL SINGLE POINT ENERGY      -342.348367448778

DIPOLE MOMENT
-------------
                                X             Y             Z
Electronic contribution:     -0.91990      -0.60145      -1.15430
Nuclear contribution   :      1.05769       0.68777       1.32653
                        -----------------------------------------
Total Dipole Moment    :      0.13779       0.08632       0.17223
                        -----------------------------------------
Magnitude (a.u.)       :      0.23685
Magnitude (Debye)      :      0.60203

VIBRATIONAL FREQUENCIES
-----------------------

Scaling factor for frequencies =  1.000000000 (already applied!)

   0:         0.00 cm**-1
   1:         0.00 cm**-1
   2:         0.00 cm**-1
   3:         0.00 cm**-1
   4:         0.00 cm**-1
   5:         0.00 cm**-1
   6:      1080.89 cm**-1
   7:      2305.76 cm**-1
   8:      2322.58 cm**-1

IR SPECTRUM
-----------

 Mode    freq (cm**-1)   T**2         TX         TY         TZ
-------------------------------------------------------------------
   6:      1080.89   12.573640  ( -2.468113  -1.177011  -2.257588)
   7:      2305.76   49.921795  ( -4.426611  -2.369212  -4.971292)
   8:      2322.58   52.185870  (  5.654109  -1.912266  -4.069418)

--------------------------
THERMOCHEMISTRY AT 298.15K
--------------------------

Temperature         ... 298.15 K
Pressure            ... 1.00 atm
Total Mass          ... 32.99 AMU

Throughout the following assumptions are being made:
  (1) The electronic state is orbitally nondegenerate
      but the spin degeneracy is treated
  (2) There are no thermally accessible electronically excited states
  (3) Hindered rotations indicated by low frequency modes are not
      treated as such but are treated as vibrations and this may
      cause some error
  (4) All equations used are the standard statistical mechanics
      equations for an ideal gas
  (5) All vibrations are strictly harmonic

freq.    1080.89  E(vib)   ...       0.02
freq.    2305.76  E(vib)   ...       0.00
freq.    2322.58  E(vib)   ...       0.00

------------
INNER ENERGY
------------

The inner energy is: U= E(el) + E(ZPE) + E(vib) + E(rot) + E(trans)
    E(el)   - is the total energy from the electronic structure calculation
              = E(kin-el) + E(nuc-el) + E(el-el) + E(nuc-nuc)
    E(ZPE)  - the the zero temperature vibrational energy from the frequency calculation
    E(vib)  - the the finite temperature correction to E(ZPE) due to population
              of excited vibrational states
    E(rot)  - is the rotational thermal energy
    E(trans)- is the translational thermal energy

Summary of contributions to the inner energy U:
Electronic energy                ...   -342.34836925 Eh
Zero point energy                ...      0.01300660 Eh       8.16 kcal/mol
Thermal vibrational correction   ...      0.00002718 Eh       0.02 kcal/mol
Thermal rotational correction    ...      0.00141627 Eh       0.89 kcal/mol
Thermal translational correction ...      0.00141627 Eh       0.89 kcal/mol
-----------------------------------------------------------------------
Total thermal energy                   -342.33250292 Eh

Summary of corrections to the electronic energy:
(perhaps to be used in another calculation)
Total thermal correction                  0.00285973 Eh       1.79 kcal/mol
Non-thermal (ZPE) correction              0.01300660 Eh       8.16 kcal/mol
-----------------------------------------------------------------------
Total correction                          0.01586633 Eh       9.96 kcal/mol

--------
ENTHALPY
--------

The enthalpy is H = U + kB*T
                kB is Boltzmann's constant
Total free energy                 ...   -342.33250292 Eh
Thermal Enthalpy correction       ...      0.00094421 Eh       0.59 kcal/mol
-----------------------------------------------------------------------
Total Enthalpy                    ...   -342.33155871 Eh

Note: Rotational entropy computed according to Herzberg
Infrared and Raman Spectra, Chapter V,1, Van Nostrand Reinhold, 1945
Point Group:  Cs, Symmetry Number:   1
Rotational constants in cm-1:     8.766759     7.999526     4.182794

Vibrational entropy computed according to the QRRHO of S. Grimme
Chem.Eur.J. 2012 18 9955

-------
ENTROPY
-------

The entropy contributions are T*S = T*(S(el)+S(vib)+S(rot)+S(trans))
     S(el)   - electronic entropy
     S(vib)  - vibrational entropy
     S(rot)  - rotational entropy
     S(trans)- translational entropy
The entropies will be listed as mutliplied by the temperature to get
units of energy

Electronic entropy                ...      0.00065446 Eh      0.41 kcal/mol
Vibrational entropy               ...      0.00003236 Eh      0.02 kcal/mol
Rotational entropy                ...      0.00682871 Eh      4.29 kcal/mol
Translational entropy             ...      0.01730065 Eh     10.86 kcal/mol
-----------------------------------------------------------------------
Final entropy term                ...      0.02481617 Eh     15.57 kcal/mol

In case the symmetry of your molecule has not been determined correctly
or in case you have a reason to use a different symmetry number we print
out the resulting rotational entropy values for sn=1,12 :
 --------------------------------------------------------
|  sn= 1 | S(rot)=       0.00682871 Eh      4.29 kcal/mol|
|  sn= 2 | S(rot)=       0.00617425 Eh      3.87 kcal/mol|
|  sn= 3 | S(rot)=       0.00579142 Eh      3.63 kcal/mol|
|  sn= 4 | S(rot)=       0.00551980 Eh      3.46 kcal/mol|
|  sn= 5 | S(rot)=       0.00530911 Eh      3.33 kcal/mol|
|  sn= 6 | S(rot)=       0.00513696 Eh      3.22 kcal/mol|
|  sn= 7 | S(rot)=       0.00499142 Eh      3.13 kcal/mol|
|  sn= 8 | S(rot)=       0.00486534 Eh      3.05 kcal/mol|
|  sn= 9 | S(rot)=       0.00475413 Eh      2.98 kcal/mol|
|  sn=10 | S(rot)=       0.00465465 Eh      2.92 kcal/mol|
|  sn=11 | S(rot)=       0.00456466 Eh      2.86 kcal/mol|
|  sn=12 | S(rot)=       0.00448251 Eh      2.81 kcal/mol|
 --------------------------------------------------------

-------------------
GIBBS FREE ENERGY
-------------------

The Gibbs free energy is G = H - T*S

Total enthalpy                    ...   -342.33155871 Eh
Total entropy correction          ...     -0.02481617 Eh    -15.57 kcal/mol
-----------------------------------------------------------------------
Final Gibbs free energy         ...   -342.35637489 Eh

For completeness - the Gibbs free energy minus the electronic energy
G-E(el)                           ...     -0.00800563 Eh     -5.02 kcal/mol

                             ****ORCA TERMINATED NORMALLY****
TOTAL RUN TIME: 0 days 0 hours 1 minutes 33 seconds 73 msec
