                         Program Version 4.2.1 -  RELEASE  -
|  1> ! PAL5 PBE
|  2>
|  3> %method
|  4>         method DFT
|  5>         runtyp OPT
|  6> end
|  7>
|  8> %basis
|  9>         basis "def2-TZVP"
| 10> end
| 11> ! NumFreq
| 12> %output
| 13>         XYZFile true
| 14> end
| 15> %coords
| 16>         CTyp xyz
| 17>         Charge 1
| 18>         Mult 1
| 19>         Units Angs
| 20>         coords
| 21>         P       -1.3964703605      0.5346218729     -0.0392481365
| 22> 	H        0.1725606238      0.5123737189     -0.0821591799
| 23> 	H       -1.9650463708      1.2081038033      1.2597276053
| 24>         end
| 25> endd                         ****END OF INPUT****
 Total Charge           Charge          ....    1
 Multiplicity           Mult            ....    1
 Number of Electrons    NEL             ....   16
FINAL SINGLE POINT ENERGY      -341.962577071829
FINAL SINGLE POINT ENERGY      -341.977883981398
FINAL SINGLE POINT ENERGY      -341.982376717064
FINAL SINGLE POINT ENERGY      -341.982828916078
FINAL SINGLE POINT ENERGY      -341.982844300532
FINAL SINGLE POINT ENERGY      -341.982844874332
                    ***********************HURRAY********************

CARTESIAN COORDINATES (ANGSTROEM)
---------------------------------
  P     -1.452320    0.498415   -0.109082
  H     -0.028335    0.604994    0.096482
  H     -1.708301    1.151690    1.150920

 Multiplicity           Mult            ....    1
 Number of Electrons    NEL             ....   16
 Basis Dimension        Dim             ....   49

ORBITAL ENERGIES
----------------

  NO   OCC          E(Eh)            E(eV)
   0   2.0000     -76.695849     -2087.0001
   1   2.0000      -6.689559      -182.0322
   2   2.0000      -4.913068      -133.6914
   3   2.0000      -4.902404      -133.4012
   4   2.0000      -4.900549      -133.3507
   5   2.0000      -0.887499       -24.1501
   6   2.0000      -0.643917       -17.5219
   7   2.0000      -0.577726       -15.7207
   8   0.0000      -0.507404       -13.8072
   9   0.0000      -0.285984        -7.7820
  10   0.0000      -0.240343        -6.5401
  11   0.0000      -0.099915        -2.7188
  12   0.0000      -0.076984        -2.0948

MULLIKEN ATOMIC CHARGES
-----------------------
   0 P :    0.575512
   1 H :    0.212797
   2 H :    0.211691
Sum of atomic charges:    1.0000000

LOEWDIN ATOMIC CHARGES
----------------------
   0 P :    0.858632
   1 H :    0.070573
   2 H :    0.070795

  Mayer bond orders larger than 0.100000
B(  0-P ,  1-H ) :   0.9271 B(  0-P ,  2-H ) :   0.9277

FINAL SINGLE POINT ENERGY      -341.982844878591

DIPOLE MOMENT
-------------
                                X             Y             Z
Electronic contribution:     -0.80172      -0.52097      -1.00392
Nuclear contribution   :      1.06072       0.69006       1.33095
                        -----------------------------------------
Total Dipole Moment    :      0.25900       0.16909       0.32703
                        -----------------------------------------
Magnitude (a.u.)       :      0.45013
Magnitude (Debye)      :      1.14414

VIBRATIONAL FREQUENCIES
-----------------------

Scaling factor for frequencies =  1.000000000 (already applied!)

   0:         0.00 cm**-1
   1:         0.00 cm**-1
   2:         0.00 cm**-1
   3:         0.00 cm**-1
   4:         0.00 cm**-1
   5:         0.00 cm**-1
   6:      1087.59 cm**-1
   7:      2296.60 cm**-1
   8:      2310.56 cm**-1

IR SPECTRUM
-----------

 Mode    freq (cm**-1)   T**2         TX         TY         TZ
-------------------------------------------------------------------
   6:      1087.59    2.660918  (  1.161119   0.507631   1.027148)
   7:      2296.60    1.405371  (  0.689979   0.494407   0.827564)
   8:      2310.56    1.761905  (  1.067312  -0.334682  -0.714659)

--------------------------
THERMOCHEMISTRY AT 298.15K
--------------------------

Temperature         ... 298.15 K
Pressure            ... 1.00 atm
Total Mass          ... 32.99 AMU

Throughout the following assumptions are being made:
  (1) The electronic state is orbitally nondegenerate
  (2) There are no thermally accessible electronically excited states
  (3) Hindered rotations indicated by low frequency modes are not
      treated as such but are treated as vibrations and this may
      cause some error
  (4) All equations used are the standard statistical mechanics
      equations for an ideal gas
  (5) All vibrations are strictly harmonic

freq.    1087.59  E(vib)   ...       0.02
freq.    2296.60  E(vib)   ...       0.00
freq.    2310.56  E(vib)   ...       0.00

------------
INNER ENERGY
------------

The inner energy is: U= E(el) + E(ZPE) + E(vib) + E(rot) + E(trans)
    E(el)   - is the total energy from the electronic structure calculation
              = E(kin-el) + E(nuc-el) + E(el-el) + E(nuc-nuc)
    E(ZPE)  - the the zero temperature vibrational energy from the frequency calculation
    E(vib)  - the the finite temperature correction to E(ZPE) due to population
              of excited vibrational states
    E(rot)  - is the rotational thermal energy
    E(trans)- is the translational thermal energy

Summary of contributions to the inner energy U:
Electronic energy                ...   -341.98284488 Eh
Zero point energy                ...      0.01297360 Eh       8.14 kcal/mol
Thermal vibrational correction   ...      0.00002650 Eh       0.02 kcal/mol
Thermal rotational correction    ...      0.00141627 Eh       0.89 kcal/mol
Thermal translational correction ...      0.00141627 Eh       0.89 kcal/mol
-----------------------------------------------------------------------
Total thermal energy                   -341.96701224 Eh

Summary of corrections to the electronic energy:
(perhaps to be used in another calculation)
Total thermal correction                  0.00285904 Eh       1.79 kcal/mol
Non-thermal (ZPE) correction              0.01297360 Eh       8.14 kcal/mol
-----------------------------------------------------------------------
Total correction                          0.01583264 Eh       9.94 kcal/mol

--------
ENTHALPY
--------

The enthalpy is H = U + kB*T
                kB is Boltzmann's constant
Total free energy                 ...   -341.96701224 Eh
Thermal Enthalpy correction       ...      0.00094421 Eh       0.59 kcal/mol
-----------------------------------------------------------------------
Total Enthalpy                    ...   -341.96606803 Eh

Note: Rotational entropy computed according to Herzberg
Infrared and Raman Spectra, Chapter V,1, Van Nostrand Reinhold, 1945
Point Group:  Cs, Symmetry Number:   1
Rotational constants in cm-1:     8.711277     7.901637     4.143364

Vibrational entropy computed according to the QRRHO of S. Grimme
Chem.Eur.J. 2012 18 9955

-------
ENTROPY
-------

The entropy contributions are T*S = T*(S(el)+S(vib)+S(rot)+S(trans))
     S(el)   - electronic entropy
     S(vib)  - vibrational entropy
     S(rot)  - rotational entropy
     S(trans)- translational entropy
The entropies will be listed as mutliplied by the temperature to get
units of energy

Electronic entropy                ...      0.00000000 Eh      0.00 kcal/mol
Vibrational entropy               ...      0.00003152 Eh      0.02 kcal/mol
Rotational entropy                ...      0.00684199 Eh      4.29 kcal/mol
Translational entropy             ...      0.01730065 Eh     10.86 kcal/mol
-----------------------------------------------------------------------
Final entropy term                ...      0.02417415 Eh     15.17 kcal/mol

In case the symmetry of your molecule has not been determined correctly
or in case you have a reason to use a different symmetry number we print
out the resulting rotational entropy values for sn=1,12 :
 --------------------------------------------------------
|  sn= 1 | S(rot)=       0.00684199 Eh      4.29 kcal/mol|
|  sn= 2 | S(rot)=       0.00618753 Eh      3.88 kcal/mol|
|  sn= 3 | S(rot)=       0.00580470 Eh      3.64 kcal/mol|
|  sn= 4 | S(rot)=       0.00553308 Eh      3.47 kcal/mol|
|  sn= 5 | S(rot)=       0.00532239 Eh      3.34 kcal/mol|
|  sn= 6 | S(rot)=       0.00515024 Eh      3.23 kcal/mol|
|  sn= 7 | S(rot)=       0.00500470 Eh      3.14 kcal/mol|
|  sn= 8 | S(rot)=       0.00487862 Eh      3.06 kcal/mol|
|  sn= 9 | S(rot)=       0.00476741 Eh      2.99 kcal/mol|
|  sn=10 | S(rot)=       0.00466793 Eh      2.93 kcal/mol|
|  sn=11 | S(rot)=       0.00457794 Eh      2.87 kcal/mol|
|  sn=12 | S(rot)=       0.00449579 Eh      2.82 kcal/mol|
 --------------------------------------------------------

-------------------
GIBBS FREE ENERGY
-------------------

The Gibbs free energy is G = H - T*S

Total enthalpy                    ...   -341.96606803 Eh
Total entropy correction          ...     -0.02417415 Eh    -15.17 kcal/mol
-----------------------------------------------------------------------
Final Gibbs free energy         ...   -341.99024218 Eh

For completeness - the Gibbs free energy minus the electronic energy
G-E(el)                           ...     -0.00739730 Eh     -4.64 kcal/mol

                             ****ORCA TERMINATED NORMALLY****
TOTAL RUN TIME: 0 days 0 hours 0 minutes 42 seconds 570 msec
