                         Program Version 5.0.3 -  RELEASE  -
|  1> ! PAL5 PBE0 NumFreq
|  2> %method
|  3>         method DFT
|  4>         runtyp Energy
|  5> end
|  6> %basis
|  7>         basis "def2-TZVP"
|  8> end
|  9> %coords
| 10>         CTyp xyz
| 11>         Charge 0
| 12>         Mult 1
| 13>         Units Angs
| 14>         coords
| 15> 	#180
| 16> 	C     -1.011290    0.960957    0.000001
| 17> 	N      0.144451    0.903804   -0.000000
| 18> 	H     -2.068270    1.013340    0.000003
| 19>         end
| 20> end
| 21> %eprnmr
| 22>         NMRShielding 1
| 23> 	Nuclei = all N {shift}
| 24>         Nuclei = all C {shift}
| 25>         Nuclei = all H {shift}
| 26> endd                         ****END OF INPUT****

CARTESIAN COORDINATES (ANGSTROEM)
---------------------------------
  C     -1.011290    0.960957    0.000001
  N      0.144451    0.903804   -0.000000
  H     -2.068270    1.013340    0.000003

 Total Charge           Charge          ....    0
 Multiplicity           Mult            ....    1
 Number of Electrons    NEL             ....   14
 Basis Dimension        Dim             ....   68

ORBITAL ENERGIES
----------------

  NO   OCC          E(Eh)            E(eV)
   0   2.0000     -14.411469      -392.1560
   1   2.0000     -10.279342      -279.7151
   2   2.0000      -0.950586       -25.8668
   3   2.0000      -0.631025       -17.1711
   4   2.0000      -0.403799       -10.9879
   5   2.0000      -0.381045       -10.3688
   6   2.0000      -0.381045       -10.3688
   7   0.0000       0.007546         0.2053
   8   0.0000       0.007546         0.2053
   9   0.0000       0.058028         1.5790
  10   0.0000       0.101795         2.7700
  11   0.0000       0.226017         6.1502

MULLIKEN ATOMIC CHARGES
-----------------------
   0 C :   -0.168688
   1 N :   -0.031414
   2 H :    0.200103
Sum of atomic charges:   -0.0000000

LOEWDIN ATOMIC CHARGES
----------------------
   0 C :   -0.166439
   1 N :    0.044505
   2 H :    0.121935

  Mayer bond orders larger than 0.100000
B(  0-C ,  1-N ) :   3.0664 B(  0-C ,  2-H ) :   0.9367

FINAL SINGLE POINT ENERGY       -93.345070870554

DIPOLE MOMENT
-------------
                                X             Y             Z
Electronic contribution:      0.32696      -0.01622      -0.00000
Nuclear contribution   :     -1.51333       0.07494       0.00000
                        -----------------------------------------
Total Dipole Moment    :     -1.18637       0.05872       0.00000
                        -----------------------------------------
Magnitude (a.u.)       :      1.18782
Magnitude (Debye)      :      3.01920

CHEMICAL SHIELDING SUMMARY (ppm)
--------------------------------

  Nucleus  Element    Isotropic     Anisotropy
  -------  -------  ------------   ------------
      1       N          -43.485        574.972
      0       C           74.912        305.438
      2       H           29.489         14.770

VIBRATIONAL FREQUENCIES
-----------------------

Scaling factor for frequencies =  1.000000000 (already applied!)

   0:         0.00 cm**-1
   1:         0.00 cm**-1
   2:         0.00 cm**-1
   3:         0.00 cm**-1
   4:         0.00 cm**-1
   5:         0.00 cm**-1
   6:       710.52 cm**-1
   7:      2150.44 cm**-1
   8:      3546.23 cm**-1

IR SPECTRUM
-----------

 Mode   freq       eps      Int      T**2         TX        TY        TZ
       cm**-1   L/(mol*cm) km/mol    a.u.
----------------------------------------------------------------------------
  6:    710.52   0.007649   38.65  0.003359  (-0.003175 -0.057869 -0.000585)
  7:   2150.44   0.000195    0.99  0.000028  ( 0.005314 -0.000259 -0.000000)
  8:   3546.23   0.013728   69.38  0.001208  ( 0.034714 -0.001730 -0.000000)

--------------------------
THERMOCHEMISTRY AT 298.15K
--------------------------

Temperature         ... 298.15 K
Pressure            ... 1.00 atm
Total Mass          ... 27.03 AMU

Throughout the following assumptions are being made:
  (1) The electronic state is orbitally nondegenerate
  (2) There are no thermally accessible electronically excited states
  (3) Hindered rotations indicated by low frequency modes are not
      treated as such but are treated as vibrations and this may
      cause some error
  (4) All equations used are the standard statistical mechanics
      equations for an ideal gas
  (5) All vibrations are strictly harmonic

freq.     710.52  E(vib)   ...       0.07
freq.    2150.44  E(vib)   ...       0.00
freq.    3546.23  E(vib)   ...       0.00

------------
INNER ENERGY
------------

The inner energy is: U= E(el) + E(ZPE) + E(vib) + E(rot) + E(trans)
    E(el)   - is the total energy from the electronic structure calculation
              = E(kin-el) + E(nuc-el) + E(el-el) + E(nuc-nuc)
    E(ZPE)  - the the zero temperature vibrational energy from the frequency calculation
    E(vib)  - the the finite temperature correction to E(ZPE) due to population
              of excited vibrational states
    E(rot)  - is the rotational thermal energy
    E(trans)- is the translational thermal energy

Summary of contributions to the inner energy U:
Electronic energy                ...    -93.34507087 Eh
Zero point energy                ...      0.01459663 Eh       9.16 kcal/mol
Thermal vibrational correction   ...      0.00010882 Eh       0.07 kcal/mol
Thermal rotational correction    ...      0.00141627 Eh       0.89 kcal/mol
Thermal translational correction ...      0.00141627 Eh       0.89 kcal/mol
-----------------------------------------------------------------------
Total thermal energy                    -93.32753288 Eh

Summary of corrections to the electronic energy:
(perhaps to be used in another calculation)
Total thermal correction                  0.00294136 Eh       1.85 kcal/mol
Non-thermal (ZPE) correction              0.01459663 Eh       9.16 kcal/mol
-----------------------------------------------------------------------
Total correction                          0.01753799 Eh      11.01 kcal/mol

--------
ENTHALPY
--------

The enthalpy is H = U + kB*T
                kB is Boltzmann's constant
Total free energy                 ...    -93.32753288 Eh
Thermal Enthalpy correction       ...      0.00094421 Eh       0.59 kcal/mol
-----------------------------------------------------------------------
Total Enthalpy                    ...    -93.32658867 Eh

Note: Rotational entropy computed according to Herzberg
Infrared and Raman Spectra, Chapter V,1, Van Nostrand Reinhold, 1945
Point Group:  Cinfv, Symmetry Number:   1
Rotational constants in cm-1: 1768374877.146895     1.478585     1.478585

Vibrational entropy computed according to the QRRHO of S. Grimme
Chem.Eur.J. 2012 18 9955

-------
ENTROPY
-------

The entropy contributions are T*S = T*(S(el)+S(vib)+S(rot)+S(trans))
     S(el)   - electronic entropy
     S(vib)  - vibrational entropy
     S(rot)  - rotational entropy
     S(trans)- translational entropy
The entropies will be listed as multiplied by the temperature to get
units of energy

Electronic entropy                ...      0.00000000 Eh      0.00 kcal/mol
Vibrational entropy               ...      0.00014008 Eh      0.09 kcal/mol
Rotational entropy                ...     -0.00091082 Eh     -0.57 kcal/mol
Translational entropy             ...      0.01701823 Eh     10.68 kcal/mol
-----------------------------------------------------------------------
Final entropy term                ...      0.01624750 Eh     10.20 kcal/mol

In case the symmetry of your molecule has not been determined correctly
or in case you have a reason to use a different symmetry number we print
out the resulting rotational entropy values for sn=1,12 :
 --------------------------------------------------------
|  sn= 1 | S(rot)=      -0.00091082 Eh     -0.57 kcal/mol|
|  sn= 2 | S(rot)=      -0.00156528 Eh     -0.98 kcal/mol|
|  sn= 3 | S(rot)=      -0.00194811 Eh     -1.22 kcal/mol|
|  sn= 4 | S(rot)=      -0.00221973 Eh     -1.39 kcal/mol|
|  sn= 5 | S(rot)=      -0.00243042 Eh     -1.53 kcal/mol|
|  sn= 6 | S(rot)=      -0.00260257 Eh     -1.63 kcal/mol|
|  sn= 7 | S(rot)=      -0.00274811 Eh     -1.72 kcal/mol|
|  sn= 8 | S(rot)=      -0.00287419 Eh     -1.80 kcal/mol|
|  sn= 9 | S(rot)=      -0.00298540 Eh     -1.87 kcal/mol|
|  sn=10 | S(rot)=      -0.00308488 Eh     -1.94 kcal/mol|
|  sn=11 | S(rot)=      -0.00317487 Eh     -1.99 kcal/mol|
|  sn=12 | S(rot)=      -0.00325702 Eh     -2.04 kcal/mol|
 --------------------------------------------------------

-------------------
GIBBS FREE ENERGY
-------------------

The Gibbs free energy is G = H - T*S

Total enthalpy                    ...    -93.32658867 Eh
Total entropy correction          ...     -0.01624750 Eh    -10.20 kcal/mol
-----------------------------------------------------------------------
Final Gibbs free energy         ...    -93.34283617 Eh

For completeness - the Gibbs free energy minus the electronic energy
G-E(el)                           ...      0.00223470 Eh      1.40 kcal/mol

                             ****ORCA TERMINATED NORMALLY****
TOTAL RUN TIME: 0 days 0 hours 1 minutes 4 seconds 539 msec
