                         Program Version 5.0.3 -  RELEASE  -
|  1> ! PAL5 PBE0 NumFreq
|  2> %method
|  3>         method DFT
|  4>         runtyp Energy
|  5> end
|  6> %basis
|  7>         basis "def2-TZVP"
|  8> end
|  9> %coords
| 10>         CTyp xyz
| 11>         Charge 0
| 12>         Mult 1
| 13>         Units Angs
| 14>         coords
| 15> 	#165
| 16> 	C     -1.011290    0.960957    0.000001
| 17> 	N      0.105157    0.905748   -0.299168
| 18> 	H     -2.068270    1.013340    0.000003
| 19> 	end
| 20> end
| 21> %eprnmr
| 22>         NMRShielding 1
| 23>         Nuclei = all N {shift}
| 24>         Nuclei = all C {shift}
| 25>         Nuclei = all H {shift}
| 26> endd                         ****END OF INPUT****

CARTESIAN COORDINATES (ANGSTROEM)
---------------------------------
  C     -1.011290    0.960957    0.000001
  N      0.105157    0.905748   -0.299168
  H     -2.068270    1.013340    0.000003

 Total Charge           Charge          ....    0
 Multiplicity           Mult            ....    1
 Number of Electrons    NEL             ....   14
 Basis Dimension        Dim             ....   68

ORBITAL ENERGIES
----------------

  NO   OCC          E(Eh)            E(eV)
   0   2.0000     -14.412178      -392.1753
   1   2.0000     -10.278788      -279.7000
   2   2.0000      -0.951387       -25.8885
   3   2.0000      -0.628865       -17.1123
   4   2.0000      -0.405308       -11.0290
   5   2.0000      -0.381445       -10.3796
   6   2.0000      -0.380475       -10.3532
   7   0.0000      -0.006588        -0.1793
   8   0.0000       0.007688         0.2092
   9   0.0000       0.068517         1.8644
  10   0.0000       0.105770         2.8782
  11   0.0000       0.224468         6.1081

MULLIKEN ATOMIC CHARGES
-----------------------
   0 C :   -0.160345
   1 N :   -0.042639
   2 H :    0.202984
Sum of atomic charges:    0.0000000

LOEWDIN ATOMIC CHARGES
----------------------
   0 C :   -0.169912
   1 N :    0.046914
   2 H :    0.122998

  Mayer bond orders larger than 0.100000
B(  0-C ,  1-N ) :   3.0421 B(  0-C ,  2-H ) :   0.9379

FINAL SINGLE POINT ENERGY       -93.342795274887

DIPOLE MOMENT
-------------
                                X             Y             Z
Electronic contribution:      0.33932      -0.01683       0.02547
Nuclear contribution   :     -1.49433       0.07400       0.14468
                        -----------------------------------------
Total Dipole Moment    :     -1.15501       0.05717       0.17015
                        -----------------------------------------
Magnitude (a.u.)       :      1.16887
Magnitude (Debye)      :      2.97104

CHEMICAL SHIELDING SUMMARY (ppm)
--------------------------------

  Nucleus  Element    Isotropic     Anisotropy
  -------  -------  ------------   ------------
      1       N          -52.667        522.175
      0       C           73.976        306.999
      2       H           29.144         14.661

VIBRATIONAL FREQUENCIES
-----------------------

Scaling factor for frequencies =  1.000000000 (already applied!)

   0:         0.00 cm**-1
   1:         0.00 cm**-1
   2:         0.00 cm**-1
   3:         0.00 cm**-1
   4:         0.00 cm**-1
   5:         0.00 cm**-1
   6:       678.70 cm**-1
   7:      2154.01 cm**-1
   8:      3542.55 cm**-1

IR SPECTRUM
-----------

 Mode   freq       eps      Int      T**2         TX        TY        TZ
       cm**-1   L/(mol*cm) km/mol    a.u.
----------------------------------------------------------------------------
  6:    678.70   0.011876   60.02  0.005461  (-0.020049  0.000966  0.071117)
  7:   2154.01   0.000325    1.64  0.000047  ( 0.005420 -0.000266  0.004196)
  8:   3542.55   0.013915   70.32  0.001226  (-0.034965  0.001743  0.000483)

--------------------------
THERMOCHEMISTRY AT 298.15K
--------------------------

Temperature         ... 298.15 K
Pressure            ... 1.00 atm
Total Mass          ... 27.03 AMU

Throughout the following assumptions are being made:
  (1) The electronic state is orbitally nondegenerate
  (2) There are no thermally accessible electronically excited states
  (3) Hindered rotations indicated by low frequency modes are not
      treated as such but are treated as vibrations and this may
      cause some error
  (4) All equations used are the standard statistical mechanics
      equations for an ideal gas
  (5) All vibrations are strictly harmonic

freq.     678.70  E(vib)   ...       0.08
freq.    2154.01  E(vib)   ...       0.00
freq.    3542.55  E(vib)   ...       0.00

------------
INNER ENERGY
------------

The inner energy is: U= E(el) + E(ZPE) + E(vib) + E(rot) + E(trans)
    E(el)   - is the total energy from the electronic structure calculation
              = E(kin-el) + E(nuc-el) + E(el-el) + E(nuc-nuc)
    E(ZPE)  - the the zero temperature vibrational energy from the frequency calculation
    E(vib)  - the the finite temperature correction to E(ZPE) due to population
              of excited vibrational states
    E(rot)  - is the rotational thermal energy
    E(trans)- is the translational thermal energy

Summary of contributions to the inner energy U:
Electronic energy                ...    -93.34279527 Eh
Zero point energy                ...      0.01452392 Eh       9.11 kcal/mol
Thermal vibrational correction   ...      0.00012183 Eh       0.08 kcal/mol
Thermal rotational correction    ...      0.00141627 Eh       0.89 kcal/mol
Thermal translational correction ...      0.00141627 Eh       0.89 kcal/mol
-----------------------------------------------------------------------
Total thermal energy                    -93.32531698 Eh

Summary of corrections to the electronic energy:
(perhaps to be used in another calculation)
Total thermal correction                  0.00295437 Eh       1.85 kcal/mol
Non-thermal (ZPE) correction              0.01452392 Eh       9.11 kcal/mol
-----------------------------------------------------------------------
Total correction                          0.01747829 Eh      10.97 kcal/mol

--------
ENTHALPY
--------

The enthalpy is H = U + kB*T
                kB is Boltzmann's constant
Total free energy                 ...    -93.32531698 Eh
Thermal Enthalpy correction       ...      0.00094421 Eh       0.59 kcal/mol
-----------------------------------------------------------------------
Total Enthalpy                    ...    -93.32437277 Eh

Note: Rotational entropy computed according to Herzberg
Infrared and Raman Spectra, Chapter V,1, Van Nostrand Reinhold, 1945
Point Group:  Cs, Symmetry Number:   1
Rotational constants in cm-1:   302.918086     1.491556     1.484247

Vibrational entropy computed according to the QRRHO of S. Grimme
Chem.Eur.J. 2012 18 9955

-------
ENTROPY
-------

The entropy contributions are T*S = T*(S(el)+S(vib)+S(rot)+S(trans))
     S(el)   - electronic entropy
     S(vib)  - vibrational entropy
     S(rot)  - rotational entropy
     S(trans)- translational entropy
The entropies will be listed as multiplied by the temperature to get
units of energy

Electronic entropy                ...      0.00000000 Eh      0.00 kcal/mol
Vibrational entropy               ...      0.00015839 Eh      0.10 kcal/mol
Rotational entropy                ...      0.00643836 Eh      4.04 kcal/mol
Translational entropy             ...      0.01701823 Eh     10.68 kcal/mol
-----------------------------------------------------------------------
Final entropy term                ...      0.02361498 Eh     14.82 kcal/mol

In case the symmetry of your molecule has not been determined correctly
or in case you have a reason to use a different symmetry number we print
out the resulting rotational entropy values for sn=1,12 :
 --------------------------------------------------------
|  sn= 1 | S(rot)=       0.00643836 Eh      4.04 kcal/mol|
|  sn= 2 | S(rot)=       0.00578390 Eh      3.63 kcal/mol|
|  sn= 3 | S(rot)=       0.00540107 Eh      3.39 kcal/mol|
|  sn= 4 | S(rot)=       0.00512944 Eh      3.22 kcal/mol|
|  sn= 5 | S(rot)=       0.00491876 Eh      3.09 kcal/mol|
|  sn= 6 | S(rot)=       0.00474661 Eh      2.98 kcal/mol|
|  sn= 7 | S(rot)=       0.00460106 Eh      2.89 kcal/mol|
|  sn= 8 | S(rot)=       0.00447499 Eh      2.81 kcal/mol|
|  sn= 9 | S(rot)=       0.00436378 Eh      2.74 kcal/mol|
|  sn=10 | S(rot)=       0.00426430 Eh      2.68 kcal/mol|
|  sn=11 | S(rot)=       0.00417431 Eh      2.62 kcal/mol|
|  sn=12 | S(rot)=       0.00409215 Eh      2.57 kcal/mol|
 --------------------------------------------------------

-------------------
GIBBS FREE ENERGY
-------------------

The Gibbs free energy is G = H - T*S

Total enthalpy                    ...    -93.32437277 Eh
Total entropy correction          ...     -0.02361498 Eh    -14.82 kcal/mol
-----------------------------------------------------------------------
Final Gibbs free energy         ...    -93.34798775 Eh

For completeness - the Gibbs free energy minus the electronic energy
G-E(el)                           ...     -0.00519247 Eh     -3.26 kcal/mol

                             ****ORCA TERMINATED NORMALLY****
TOTAL RUN TIME: 0 days 0 hours 1 minutes 6 seconds 328 msec
