                         Program Version 5.0.3 -  RELEASE  -
|  1> ! PAL5 PBE0 NumFreq
|  2> %method
|  3>         method DFT
|  4>         runtyp Energy
|  5> end
|  6> %basis
|  7>         basis "def2-TZVP"
|  8> end
|  9> %coords
| 10>         CTyp xyz
| 11>         Charge 0
| 12>         Mult 1
| 13>         Units Angs
| 14>         coords
| 15> 	#45
| 16> 	C     -1.011290    0.960957    0.000001
| 17> 	N     -1.825747    1.001235   -0.820998
| 18> 	H     -2.068270    1.013340    0.000003
| 19>         end
| 20> end
| 21> %eprnmr
| 22>         NMRShielding 1
| 23>         Nuclei = all N {shift}
| 24>         Nuclei = all C {shift}
| 25>         Nuclei = all H {shift}
| 26> endd                         ****END OF INPUT****

CARTESIAN COORDINATES (ANGSTROEM)
---------------------------------
  C     -1.011290    0.960957    0.000001
  N     -1.825747    1.001235   -0.820998
  H     -2.068270    1.013340    0.000003

 Total Charge           Charge          ....    0
 Multiplicity           Mult            ....    1
 Number of Electrons    NEL             ....   14
 Basis Dimension        Dim             ....   68

ORBITAL ENERGIES
----------------

  NO   OCC          E(Eh)            E(eV)
   0   2.0000     -14.439257      -392.9122
   1   2.0000     -10.312721      -280.6234
   2   2.0000      -1.161760       -31.6131
   3   2.0000      -0.574318       -15.6280
   4   2.0000      -0.500656       -13.6235
   5   2.0000      -0.441432       -12.0120
   6   2.0000      -0.366251        -9.9662
   7   0.0000      -0.029574        -0.8047
   8   0.0000       0.003854         0.1049
   9   0.0000       0.090424         2.4606
  10   0.0000       0.174764         4.7556
  11   0.0000       0.201290         5.4774

MULLIKEN ATOMIC CHARGES
-----------------------
   0 C :   -0.191074
   1 N :    0.030856
   2 H :    0.160217
Sum of atomic charges:   -0.0000000

LOEWDIN ATOMIC CHARGES
----------------------
   0 C :   -0.158889
   1 N :    0.135974
   2 H :    0.022915

  Mayer bond orders larger than 0.100000
B(  0-C ,  1-N ) :   2.0650 B(  0-C ,  2-H ) :   0.4230 B(  1-N ,  2-H ) :   0.6998

FINAL SINGLE POINT ENERGY       -93.192885266969

DIPOLE MOMENT
-------------
                                X             Y             Z
Electronic contribution:      0.30757      -0.01527      -0.25994
Nuclear contribution   :     -0.56057       0.02782       0.39702
                        -----------------------------------------
Total Dipole Moment    :     -0.25300       0.01256       0.13709
                        -----------------------------------------
Magnitude (a.u.)       :      0.28803
Magnitude (Debye)      :      0.73210

CHEMICAL SHIELDING SUMMARY (ppm)
--------------------------------

  Nucleus  Element    Isotropic     Anisotropy
  -------  -------  ------------   ------------
      1       N           -5.472        533.775
      0       C          -17.094        419.706
      2       H           50.694         26.275

VIBRATIONAL FREQUENCIES
-----------------------

Scaling factor for frequencies =  1.000000000 (already applied!)

   0:         0.00 cm**-1
   1:         0.00 cm**-1
   2:         0.00 cm**-1
   3:         0.00 cm**-1
   4:         0.00 cm**-1
   5:         0.00 cm**-1
   6:      1765.96 cm**-1
   7:      2330.85 cm**-1
   8:      5687.87 cm**-1

IR SPECTRUM
-----------

 Mode   freq       eps      Int      T**2         TX        TY        TZ
       cm**-1   L/(mol*cm) km/mol    a.u.
----------------------------------------------------------------------------
  6:   1765.96   0.012413   62.73  0.002194  (-0.044169  0.002214  0.015419)
  7:   2330.85   0.005667   28.64  0.000759  (-0.010587  0.000509 -0.025424)
  8:   5687.87   0.020554  103.87  0.001128  (-0.031345  0.001564  0.011947)

--------------------------
THERMOCHEMISTRY AT 298.15K
--------------------------

Temperature         ... 298.15 K
Pressure            ... 1.00 atm
Total Mass          ... 27.03 AMU

Throughout the following assumptions are being made:
  (1) The electronic state is orbitally nondegenerate
  (2) There are no thermally accessible electronically excited states
  (3) Hindered rotations indicated by low frequency modes are not
      treated as such but are treated as vibrations and this may
      cause some error
  (4) All equations used are the standard statistical mechanics
      equations for an ideal gas
  (5) All vibrations are strictly harmonic

freq.    1765.96  E(vib)   ...       0.00
freq.    2330.85  E(vib)   ...       0.00
freq.    5687.87  E(vib)   ...       0.00

------------
INNER ENERGY
------------

The inner energy is: U= E(el) + E(ZPE) + E(vib) + E(rot) + E(trans)
    E(el)   - is the total energy from the electronic structure calculation
              = E(kin-el) + E(nuc-el) + E(el-el) + E(nuc-nuc)
    E(ZPE)  - the the zero temperature vibrational energy from the frequency calculation
    E(vib)  - the the finite temperature correction to E(ZPE) due to population
              of excited vibrational states
    E(rot)  - is the rotational thermal energy
    E(trans)- is the translational thermal energy

Summary of contributions to the inner energy U:
Electronic energy                ...    -93.19288527 Eh
Zero point energy                ...      0.02229113 Eh      13.99 kcal/mol
Thermal vibrational correction   ...      0.00000174 Eh       0.00 kcal/mol
Thermal rotational correction    ...      0.00141627 Eh       0.89 kcal/mol
Thermal translational correction ...      0.00141627 Eh       0.89 kcal/mol
-----------------------------------------------------------------------
Total thermal energy                    -93.16775985 Eh

Summary of corrections to the electronic energy:
(perhaps to be used in another calculation)
Total thermal correction                  0.00283428 Eh       1.78 kcal/mol
Non-thermal (ZPE) correction              0.02229113 Eh      13.99 kcal/mol
-----------------------------------------------------------------------
Total correction                          0.02512542 Eh      15.77 kcal/mol

--------
ENTHALPY
--------

The enthalpy is H = U + kB*T
                kB is Boltzmann's constant
Total free energy                 ...    -93.16775985 Eh
Thermal Enthalpy correction       ...      0.00094421 Eh       0.59 kcal/mol
-----------------------------------------------------------------------
Total Enthalpy                    ...    -93.16681564 Eh

Note: Rotational entropy computed according to Herzberg
Infrared and Raman Spectra, Chapter V,1, Van Nostrand Reinhold, 1945
Point Group:  Cs, Symmetry Number:   1
Rotational constants in cm-1:    30.868994     1.943491     1.828377

Vibrational entropy computed according to the QRRHO of S. Grimme
Chem.Eur.J. 2012 18 9955

-------
ENTROPY
-------

The entropy contributions are T*S = T*(S(el)+S(vib)+S(rot)+S(trans))
     S(el)   - electronic entropy
     S(vib)  - vibrational entropy
     S(rot)  - rotational entropy
     S(trans)- translational entropy
The entropies will be listed as multiplied by the temperature to get
units of energy

Electronic entropy                ...      0.00000000 Eh      0.00 kcal/mol
Vibrational entropy               ...      0.00000194 Eh      0.00 kcal/mol
Rotational entropy                ...      0.00729309 Eh      4.58 kcal/mol
Translational entropy             ...      0.01701823 Eh     10.68 kcal/mol
-----------------------------------------------------------------------
Final entropy term                ...      0.02431326 Eh     15.26 kcal/mol

In case the symmetry of your molecule has not been determined correctly
or in case you have a reason to use a different symmetry number we print
out the resulting rotational entropy values for sn=1,12 :
 --------------------------------------------------------
|  sn= 1 | S(rot)=       0.00729309 Eh      4.58 kcal/mol|
|  sn= 2 | S(rot)=       0.00663863 Eh      4.17 kcal/mol|
|  sn= 3 | S(rot)=       0.00625580 Eh      3.93 kcal/mol|
|  sn= 4 | S(rot)=       0.00598417 Eh      3.76 kcal/mol|
|  sn= 5 | S(rot)=       0.00577349 Eh      3.62 kcal/mol|
|  sn= 6 | S(rot)=       0.00560134 Eh      3.51 kcal/mol|
|  sn= 7 | S(rot)=       0.00545580 Eh      3.42 kcal/mol|
|  sn= 8 | S(rot)=       0.00532972 Eh      3.34 kcal/mol|
|  sn= 9 | S(rot)=       0.00521851 Eh      3.27 kcal/mol|
|  sn=10 | S(rot)=       0.00511903 Eh      3.21 kcal/mol|
|  sn=11 | S(rot)=       0.00502904 Eh      3.16 kcal/mol|
|  sn=12 | S(rot)=       0.00494688 Eh      3.10 kcal/mol|
 --------------------------------------------------------

-------------------
GIBBS FREE ENERGY
-------------------

The Gibbs free energy is G = H - T*S

Total enthalpy                    ...    -93.16681564 Eh
Total entropy correction          ...     -0.02431326 Eh    -15.26 kcal/mol
-----------------------------------------------------------------------
Final Gibbs free energy         ...    -93.19112890 Eh

For completeness - the Gibbs free energy minus the electronic energy
G-E(el)                           ...      0.00175636 Eh      1.10 kcal/mol

                             ****ORCA TERMINATED NORMALLY****
TOTAL RUN TIME: 0 days 0 hours 1 minutes 4 seconds 831 msec
