                         Program Version 5.0.3 -  RELEASE  -
|  1> ! PAL5 VWN
|  2> %method
|  3>         method DFT
|  4>         runtyp OPT
|  5> end
|  6>
|  7> %scf
|  8>        MaxIter 500
|  9> end
| 10> %geom
| 11>        MaxIter 500
| 12>        Convergence loose
| 13> end
| 14>
| 15> %basis
| 16>         basis "def2-SVP"
| 17> end
| 18> ! NumFreq
| 19> %elprop
| 20>         Polar 1
| 21> end
| 22> %output
| 23>         XYZFile true
| 24> end
| 25> %coords
| 26>         CTyp xyz
| 27>         Charge 0
| 28>         Mult 1
| 29>         Units Angs
| 30>         coords
| 31> 	Co    -1.671960    2.457770   -0.000000
| 32> 	O     -3.066310    1.598560   -0.000001
| 33> 	O     -0.110402    3.419370    0.000000
| 34> 	H      0.603334    2.732930    0.000000
| 35>         end
| 36> endd                         ****END OF INPUT****
 Total Charge           Charge          ....    0
 Multiplicity           Mult            ....    1
 Number of Electrons    NEL             ....   44
FINAL SINGLE POINT ENERGY     -1529.834796471996
FINAL SINGLE POINT ENERGY     -1529.840814830308
FINAL SINGLE POINT ENERGY     -1529.857651062976
FINAL SINGLE POINT ENERGY     -1529.861110475499
FINAL SINGLE POINT ENERGY     -1529.863631381418
FINAL SINGLE POINT ENERGY     -1529.869393131459
FINAL SINGLE POINT ENERGY     -1529.869681637789
FINAL SINGLE POINT ENERGY     -1529.869702219622
FINAL SINGLE POINT ENERGY     -1529.869720531615
FINAL SINGLE POINT ENERGY     -1529.869741342990
FINAL SINGLE POINT ENERGY     -1529.869757368129
FINAL SINGLE POINT ENERGY     -1529.869782307162
FINAL SINGLE POINT ENERGY     -1529.869819595719
FINAL SINGLE POINT ENERGY     -1529.869858994427
FINAL SINGLE POINT ENERGY     -1529.869876946251
                    ***********************HURRAY********************

CARTESIAN COORDINATES (ANGSTROEM)
---------------------------------
  Co    -1.773795    2.577482   -0.000000
  O     -2.996165    1.637761   -0.000001
  O     -0.219340    3.072762    0.000000
  H      0.743962    2.920625   -0.000000

 Multiplicity           Mult            ....    1
 Number of Electrons    NEL             ....   44
 Basis Dimension        Dim             ....   64

ORBITAL ENERGIES
----------------

  NO   OCC          E(Eh)            E(eV)
   0   2.0000    -275.525650     -7497.4341
   1   2.0000     -32.330298      -879.7521
   2   2.0000     -28.146891      -765.9158
   3   2.0000     -28.103377      -764.7318
   4   2.0000     -28.102303      -764.7025
   5   2.0000     -18.665404      -507.9115
   6   2.0000     -18.646927      -507.4087
   7   2.0000      -3.565669       -97.0268
   8   2.0000      -2.368513       -64.4505
   9   2.0000      -2.273266       -61.8587
  10   2.0000      -2.272182       -61.8292
  11   2.0000      -0.910942       -24.7880
  12   2.0000      -0.823271       -22.4023
  13   2.0000      -0.516733       -14.0610
  14   2.0000      -0.371310       -10.1039
  15   2.0000      -0.368132       -10.0174
  16   2.0000      -0.338727        -9.2172
  17   2.0000      -0.314278        -8.5519
  18   2.0000      -0.312459        -8.5024
  19   2.0000      -0.196677        -5.3519
  20   2.0000      -0.195123        -5.3096
  21   2.0000      -0.193983        -5.2785
  22   0.0000      -0.181017        -4.9257
  23   0.0000      -0.174252        -4.7416
  24   0.0000      -0.022037        -0.5997
  25   0.0000       0.050984         1.3874
  26   0.0000       0.096099         2.6150

MULLIKEN ATOMIC CHARGES
-----------------------
   0 Co:    0.507039
   1 O :   -0.357924
   2 O :   -0.389432
   3 H :    0.240317
Sum of atomic charges:   -0.0000000

LOEWDIN ATOMIC CHARGES
----------------------
   0 Co:    0.161745
   1 O :   -0.167344
   2 O :   -0.109348
   3 H :    0.114946

  Mayer bond orders larger than 0.100000
B(  0-Co,  1-O ) :   2.0897 B(  0-Co,  2-O ) :   1.1869 B(  1-O ,  2-O ) :   0.2210
B(  2-O ,  3-H ) :   0.9342

FINAL SINGLE POINT ENERGY     -1529.869879456465

DIPOLE MOMENT
-------------
                                X             Y             Z
Electronic contribution:     -1.42674       0.29148      -0.00000
Nuclear contribution   :      2.67780       0.04756      -0.00000
                        -----------------------------------------
Total Dipole Moment    :      1.25107       0.33904      -0.00000
                        -----------------------------------------
Magnitude (a.u.)       :      1.29619
Magnitude (Debye)      :      3.29466

VIBRATIONAL FREQUENCIES
-----------------------

Scaling factor for frequencies =  1.000000000 (already applied!)

   0:         0.00 cm**-1
   1:         0.00 cm**-1
   2:         0.00 cm**-1
   3:         0.00 cm**-1
   4:         0.00 cm**-1
   5:         0.00 cm**-1
   6:        97.89 cm**-1
   7:       520.31 cm**-1
   8:       564.43 cm**-1
   9:       825.11 cm**-1
  10:      1083.63 cm**-1
  11:      3760.11 cm**-1

IR SPECTRUM
-----------

 Mode   freq       eps      Int      T**2         TX        TY        TZ
       cm**-1   L/(mol*cm) km/mol    a.u.
----------------------------------------------------------------------------
  6:     97.89   0.002879   14.55  0.009178  ( 0.054698  0.078650 -0.000288)
  7:    520.31   0.016165   81.69  0.009695  ( 0.000766  0.000244 -0.098462)
  8:    564.43   0.020126  101.71  0.011127  ( 0.038150  0.098346 -0.000018)
  9:    825.11   0.003489   17.63  0.001320  (-0.035891  0.005607 -0.000055)
 10:   1083.63   0.017622   89.05  0.005075  ( 0.055131  0.045113  0.000065)
 11:   3760.11   0.058821  297.26  0.004882  (-0.069685 -0.005066  0.000004)

--------------------------
THERMOCHEMISTRY AT 298.15K
--------------------------

Temperature         ... 298.15 K
Pressure            ... 1.00 atm
Total Mass          ... 91.94 AMU

Throughout the following assumptions are being made:
  (1) The electronic state is orbitally nondegenerate
  (2) There are no thermally accessible electronically excited states
  (3) Hindered rotations indicated by low frequency modes are not
      treated as such but are treated as vibrations and this may
      cause some error
  (4) All equations used are the standard statistical mechanics
      equations for an ideal gas
  (5) All vibrations are strictly harmonic

freq.      97.89  E(vib)   ...       0.46
freq.     520.31  E(vib)   ...       0.13
freq.     564.43  E(vib)   ...       0.11
freq.     825.11  E(vib)   ...       0.04
freq.    1083.63  E(vib)   ...       0.02
freq.    3760.11  E(vib)   ...       0.00

------------
INNER ENERGY
------------

The inner energy is: U= E(el) + E(ZPE) + E(vib) + E(rot) + E(trans)
    E(el)   - is the total energy from the electronic structure calculation
              = E(kin-el) + E(nuc-el) + E(el-el) + E(nuc-nuc)
    E(ZPE)  - the the zero temperature vibrational energy from the frequency calculation
    E(vib)  - the the finite temperature correction to E(ZPE) due to population
              of excited vibrational states
    E(rot)  - is the rotational thermal energy
    E(trans)- is the translational thermal energy

Summary of contributions to the inner energy U:
Electronic energy                ...  -1529.86987947 Eh
Zero point energy                ...      0.01560883 Eh       9.79 kcal/mol
Thermal vibrational correction   ...      0.00122694 Eh       0.77 kcal/mol
Thermal rotational correction    ...      0.00141627 Eh       0.89 kcal/mol
Thermal translational correction ...      0.00141627 Eh       0.89 kcal/mol
-----------------------------------------------------------------------
Total thermal energy                  -1529.85021116 Eh

Summary of corrections to the electronic energy:
(perhaps to be used in another calculation)
Total thermal correction                  0.00405948 Eh       2.55 kcal/mol
Non-thermal (ZPE) correction              0.01560883 Eh       9.79 kcal/mol
-----------------------------------------------------------------------
Total correction                          0.01966831 Eh      12.34 kcal/mol

--------
ENTHALPY
--------

The enthalpy is H = U + kB*T
                kB is Boltzmann's constant
Total free energy                 ...  -1529.85021116 Eh
Thermal Enthalpy correction       ...      0.00094421 Eh       0.59 kcal/mol
-----------------------------------------------------------------------
Total Enthalpy                    ...  -1529.84926695 Eh

Note: Rotational entropy computed according to Herzberg
Infrared and Raman Spectra, Chapter V,1, Van Nostrand Reinhold, 1945
Point Group:  Cs, Symmetry Number:   1
Rotational constants in cm-1:     8.145605     0.200954     0.196116

Vibrational entropy computed according to the QRRHO of S. Grimme
Chem.Eur.J. 2012 18 9955

-------
ENTROPY
-------

The entropy contributions are T*S = T*(S(el)+S(vib)+S(rot)+S(trans))
     S(el)   - electronic entropy
     S(vib)  - vibrational entropy
     S(rot)  - rotational entropy
     S(trans)- translational entropy
The entropies will be listed as multiplied by the temperature to get
units of energy

Electronic entropy                ...      0.00000000 Eh      0.00 kcal/mol
Vibrational entropy               ...      0.00216348 Eh      1.36 kcal/mol
Rotational entropy                ...      0.01004722 Eh      6.30 kcal/mol
Translational entropy             ...      0.01875217 Eh     11.77 kcal/mol
-----------------------------------------------------------------------
Final entropy term                ...      0.03096287 Eh     19.43 kcal/mol

In case the symmetry of your molecule has not been determined correctly
or in case you have a reason to use a different symmetry number we print
out the resulting rotational entropy values for sn=1,12 :
 --------------------------------------------------------
|  sn= 1 | S(rot)=       0.01004722 Eh      6.30 kcal/mol|
|  sn= 2 | S(rot)=       0.00939277 Eh      5.89 kcal/mol|
|  sn= 3 | S(rot)=       0.00900993 Eh      5.65 kcal/mol|
|  sn= 4 | S(rot)=       0.00873831 Eh      5.48 kcal/mol|
|  sn= 5 | S(rot)=       0.00852762 Eh      5.35 kcal/mol|
|  sn= 6 | S(rot)=       0.00835548 Eh      5.24 kcal/mol|
|  sn= 7 | S(rot)=       0.00820993 Eh      5.15 kcal/mol|
|  sn= 8 | S(rot)=       0.00808385 Eh      5.07 kcal/mol|
|  sn= 9 | S(rot)=       0.00797265 Eh      5.00 kcal/mol|
|  sn=10 | S(rot)=       0.00787317 Eh      4.94 kcal/mol|
|  sn=11 | S(rot)=       0.00778318 Eh      4.88 kcal/mol|
|  sn=12 | S(rot)=       0.00770102 Eh      4.83 kcal/mol|
 --------------------------------------------------------

-------------------
GIBBS FREE ENERGY
-------------------

The Gibbs free energy is G = H - T*S

Total enthalpy                    ...  -1529.84926695 Eh
Total entropy correction          ...     -0.03096287 Eh    -19.43 kcal/mol
-----------------------------------------------------------------------
Final Gibbs free energy         ...  -1529.88022982 Eh

For completeness - the Gibbs free energy minus the electronic energy
G-E(el)                           ...     -0.01035035 Eh     -6.49 kcal/mol

                             ****ORCA TERMINATED NORMALLY****
TOTAL RUN TIME: 0 days 0 hours 2 minutes 56 seconds 974 msec
