                         Program Version 5.0.3 -  RELEASE  -
|  1> ! PAL5 VWN
|  2> %method
|  3>         method DFT
|  4>         runtyp OPT
|  5> end
|  6>
|  7> %scf
|  8>        MaxIter 500
|  9> end
| 10> %geom
| 11>        MaxIter 500
| 12>        Convergence loose
| 13> end
| 14>
| 15> %basis
| 16>         basis "def2-SVP"
| 17> end
| 18> ! NumFreq
| 19> %elprop
| 20>         Polar 1
| 21> end
| 22> %output
| 23>         XYZFile true
| 24> end
| 25> %coords
| 26>         CTyp xyz
| 27>         Charge 0
| 28>         Mult 2
| 29>         Units Angs
| 30>         coords
| 31> 	O	0	0	0
| 32> 	H	1	0	0
| 33>         end
| 34> endd                         ****END OF INPUT****
 Total Charge           Charge          ....    0
 Multiplicity           Mult            ....    2
 Number of Electrons    NEL             ....    9
FINAL SINGLE POINT ENERGY       -75.097500642947
FINAL SINGLE POINT ENERGY       -75.097574589938
                    ***********************HURRAY********************

CARTESIAN COORDINATES (ANGSTROEM)
---------------------------------
  O      0.004790    0.000000    0.000000
  H      0.995210    0.000000    0.000000

 Multiplicity           Mult            ....    2
 Number of Electrons    NEL             ....    9
 Basis Dimension        Dim             ....   19

ORBITAL ENERGIES
----------------
                 SPIN UP ORBITALS
  NO   OCC          E(Eh)            E(eV)
   0   1.0000     -18.658980      -507.7367
   1   1.0000      -0.881488       -23.9865
   2   1.0000      -0.402180       -10.9439
   3   1.0000      -0.335877        -9.1397
   4   1.0000      -0.267345        -7.2748
   5   0.0000       0.027324         0.7435
   6   0.0000       0.509206        13.8562
   7   0.0000       0.784121        21.3370
   8   0.0000       0.820982        22.3401
   9   0.0000       0.828937        22.5565

                 SPIN DOWN ORBITALS
  NO   OCC          E(Eh)            E(eV)
   0   1.0000     -18.633359      -507.0395
   1   1.0000      -0.830238       -22.5919
   2   1.0000      -0.372826       -10.1451
   3   1.0000      -0.235691        -6.4135
   4   0.0000      -0.233510        -6.3541
   5   0.0000       0.037316         1.0154
   6   0.0000       0.517540        14.0830
   7   0.0000       0.847469        23.0608
   8   0.0000       0.852036        23.1851

MULLIKEN ATOMIC CHARGES AND SPIN POPULATIONS
--------------------------------------------
   0 O :   -0.202103    1.026294
   1 H :    0.202103   -0.026294
Sum of atomic charges         :    0.0000000

LOEWDIN ATOMIC CHARGES AND SPIN POPULATIONS
-------------------------------------------
   0 O :   -0.080986    0.999607
   1 H :    0.080986    0.000393

  Mayer bond orders larger than 0.100000
B(  0-O ,  1-H ) :   0.9854

FINAL SINGLE POINT ENERGY       -75.097574592366

DIPOLE MOMENT
-------------
                                X             Y             Z
Electronic contribution:     -0.18408      -0.00000       0.00000
Nuclear contribution   :      0.87325       0.00000       0.00000
                        -----------------------------------------
Total Dipole Moment    :      0.68917      -0.00000       0.00000
                        -----------------------------------------
Magnitude (a.u.)       :      0.68917
Magnitude (Debye)      :      1.75173

VIBRATIONAL FREQUENCIES
-----------------------

Scaling factor for frequencies =  1.000000000 (already applied!)

   0:         0.00 cm**-1
   1:         0.00 cm**-1
   2:         0.00 cm**-1
   3:         0.00 cm**-1
   4:         0.00 cm**-1
   5:      3586.33 cm**-1

IR SPECTRUM
-----------

 Mode   freq       eps      Int      T**2         TX        TY        TZ
       cm**-1   L/(mol*cm) km/mol    a.u.
----------------------------------------------------------------------------
  5:   3586.33   0.001663    8.40  0.000145  ( 0.012028 -0.000000  0.000000)

--------------------------
THERMOCHEMISTRY AT 298.15K
--------------------------

Temperature         ... 298.15 K
Pressure            ... 1.00 atm
Total Mass          ... 17.01 AMU
The molecule is recognized as being linear

Throughout the following assumptions are being made:
  (1) The electronic state is orbitally nondegenerate
      but the spin degeneracy is treated
  (2) There are no thermally accessible electronically excited states
  (3) Hindered rotations indicated by low frequency modes are not
      treated as such but are treated as vibrations and this may
      cause some error
  (4) All equations used are the standard statistical mechanics
      equations for an ideal gas
  (5) All vibrations are strictly harmonic

freq.    3586.33  E(vib)   ...       0.00

------------
INNER ENERGY
------------

The inner energy is: U= E(el) + E(ZPE) + E(vib) + E(rot) + E(trans)
    E(el)   - is the total energy from the electronic structure calculation
              = E(kin-el) + E(nuc-el) + E(el-el) + E(nuc-nuc)
    E(ZPE)  - the the zero temperature vibrational energy from the frequency calculation
    E(vib)  - the the finite temperature correction to E(ZPE) due to population
              of excited vibrational states
    E(rot)  - is the rotational thermal energy
    E(trans)- is the translational thermal energy

Summary of contributions to the inner energy U:
Electronic energy                ...    -75.09757459 Eh
Zero point energy                ...      0.00817025 Eh       5.13 kcal/mol
Thermal vibrational correction   ...      0.00000000 Eh       0.00 kcal/mol
Thermal rotational correction    ...      0.00094418 Eh       0.59 kcal/mol
Thermal translational correction ...      0.00141627 Eh       0.89 kcal/mol
-----------------------------------------------------------------------
Total thermal energy                    -75.08704388 Eh

Summary of corrections to the electronic energy:
(perhaps to be used in another calculation)
Total thermal correction                  0.00236045 Eh       1.48 kcal/mol
Non-thermal (ZPE) correction              0.00817025 Eh       5.13 kcal/mol
-----------------------------------------------------------------------
Total correction                          0.01053071 Eh       6.61 kcal/mol

--------
ENTHALPY
--------

The enthalpy is H = U + kB*T
                kB is Boltzmann's constant
Total free energy                 ...    -75.08704388 Eh
Thermal Enthalpy correction       ...      0.00094421 Eh       0.59 kcal/mol
-----------------------------------------------------------------------
Total Enthalpy                    ...    -75.08609968 Eh

Note: Rotational entropy computed according to Herzberg
Infrared and Raman Spectra, Chapter V,1, Van Nostrand Reinhold, 1945
Point Group:  Cinfv, Symmetry Number:   1
Rotational constants in cm-1:     0.000000    18.123123    18.123123

Vibrational entropy computed according to the QRRHO of S. Grimme
Chem.Eur.J. 2012 18 9955

-------
ENTROPY
-------

The entropy contributions are T*S = T*(S(el)+S(vib)+S(rot)+S(trans))
     S(el)   - electronic entropy
     S(vib)  - vibrational entropy
     S(rot)  - rotational entropy
     S(trans)- translational entropy
The entropies will be listed as multiplied by the temperature to get
units of energy

Electronic entropy                ...      0.00065446 Eh      0.41 kcal/mol
Vibrational entropy               ...      0.00000000 Eh      0.00 kcal/mol
Rotational entropy                ...      0.00324479 Eh      2.04 kcal/mol
Translational entropy             ...      0.01636225 Eh     10.27 kcal/mol
-----------------------------------------------------------------------
Final entropy term                ...      0.02026150 Eh     12.71 kcal/mol

-------------------
GIBBS FREE ENERGY
-------------------

The Gibbs free energy is G = H - T*S

Total enthalpy                    ...    -75.08609968 Eh
Total entropy correction          ...     -0.02026150 Eh    -12.71 kcal/mol
-----------------------------------------------------------------------
Final Gibbs free energy         ...    -75.10636118 Eh

For completeness - the Gibbs free energy minus the electronic energy
G-E(el)                           ...     -0.00878659 Eh     -5.51 kcal/mol

                             ****ORCA TERMINATED NORMALLY****
TOTAL RUN TIME: 0 days 0 hours 0 minutes 42 seconds 392 msec
