                         Program Version 5.0.3 -  RELEASE  -
|  1> ! PBE0 NumFreq
|  2> %method
|  3>         method DFT
|  4>         runtyp Energy
|  5> end
|  6> %basis
|  7>         basis "def2-TZVP"
|  8> end
|  9> %coords
| 10>         CTyp xyz
| 11>         Charge 0
| 12>         Mult 1
| 13>         Units Angs
| 14>         coords
| 15> 	#180
| 16> 	N     -1.011290    0.960957    0.000001
| 17> 	C      0.144451    0.903804   -0.000000
| 18> 	H     -2.068270    1.013340    0.000003
| 19> 	end
| 20> end
| 21> %eprnmr
| 22>         NMRShielding 1
| 23>         Nuclei = all N {shift}
| 24>         Nuclei = all C {shift}
| 25>         Nuclei = all H {shift}
| 26> end
| 27>
| 28>                          ****END OF INPUT****

CARTESIAN COORDINATES (ANGSTROEM)
---------------------------------
  N     -1.011290    0.960957    0.000001
  C      0.144451    0.903804   -0.000000
  H     -2.068270    1.013340    0.000003

 Total Charge           Charge          ....    0
 Multiplicity           Mult            ....    1
 Number of Electrons    NEL             ....   14
 Basis Dimension        Dim             ....   68

ORBITAL ENERGIES
----------------

  NO   OCC          E(Eh)            E(eV)
   0   2.0000     -14.428817      -392.6281
   1   2.0000     -10.274265      -279.5770
   2   2.0000      -0.979452       -26.6522
   3   2.0000      -0.671334       -18.2679
   4   2.0000      -0.399399       -10.8682
   5   2.0000      -0.399399       -10.8682
   6   2.0000      -0.333879        -9.0853
   7   0.0000       0.020581         0.5600
   8   0.0000       0.021472         0.5843
   9   0.0000       0.021472         0.5843
  10   0.0000       0.138122         3.7585
  11   0.0000       0.232764         6.3338

MULLIKEN ATOMIC CHARGES
-----------------------
   0 N :   -0.158834
   1 C :   -0.169832
   2 H :    0.328666
Sum of atomic charges:    0.0000000

LOEWDIN ATOMIC CHARGES
----------------------
   0 N :    0.046390
   1 C :   -0.247955
   2 H :    0.201565

  Mayer bond orders larger than 0.100000
B(  0-N ,  1-C ) :   2.4613 B(  0-N ,  2-H ) :   0.8510

FINAL SINGLE POINT ENERGY       -93.319976397289

DIPOLE MOMENT
-------------
                                X             Y             Z
Electronic contribution:      0.15699      -0.00778      -0.00000
Nuclear contribution   :     -1.43914       0.07127       0.00000
                        -----------------------------------------
Total Dipole Moment    :     -1.28216       0.06349       0.00000
                        -----------------------------------------
Magnitude (a.u.)       :      1.28373
Magnitude (Debye)      :      3.26298

CHEMICAL SHIELDING SUMMARY (ppm)
--------------------------------

  Nucleus  Element    Isotropic     Anisotropy
  -------  -------  ------------   ------------
      0       N           98.659        370.030
      1       C           15.928        388.016
      2       H           25.776         19.600

VIBRATIONAL FREQUENCIES
-----------------------

Scaling factor for frequencies =  1.000000000 (already applied!)

   0:         0.00 cm**-1
   1:         0.00 cm**-1
   2:         0.00 cm**-1
   3:         0.00 cm**-1
   4:         0.00 cm**-1
   5:         0.00 cm**-1
   6:       897.98 cm**-1
   7:      2148.27 cm**-1
   8:      3173.02 cm**-1

IR SPECTRUM
-----------

 Mode   freq       eps      Int      T**2         TX        TY        TZ
       cm**-1   L/(mol*cm) km/mol    a.u.
----------------------------------------------------------------------------
  6:    897.98   0.029960  151.40  0.010411  ( 0.003454  0.101973  0.000982)
  7:   2148.27   0.008778   44.36  0.001275  (-0.035667  0.001750  0.000000)
  8:   3173.02   0.056564  285.85  0.005563  (-0.074492  0.003732 -0.000000)

--------------------------
THERMOCHEMISTRY AT 298.15K
--------------------------

Temperature         ... 298.15 K
Pressure            ... 1.00 atm
Total Mass          ... 27.03 AMU

Throughout the following assumptions are being made:
  (1) The electronic state is orbitally nondegenerate
  (2) There are no thermally accessible electronically excited states
  (3) Hindered rotations indicated by low frequency modes are not
      treated as such but are treated as vibrations and this may
      cause some error
  (4) All equations used are the standard statistical mechanics
      equations for an ideal gas
  (5) All vibrations are strictly harmonic

freq.     897.98  E(vib)   ...       0.03
freq.    2148.27  E(vib)   ...       0.00
freq.    3173.02  E(vib)   ...       0.00

------------
INNER ENERGY
------------

The inner energy is: U= E(el) + E(ZPE) + E(vib) + E(rot) + E(trans)
    E(el)   - is the total energy from the electronic structure calculation
              = E(kin-el) + E(nuc-el) + E(el-el) + E(nuc-nuc)
    E(ZPE)  - the the zero temperature vibrational energy from the frequency calculation
    E(vib)  - the the finite temperature correction to E(ZPE) due to population
              of excited vibrational states
    E(rot)  - is the rotational thermal energy
    E(trans)- is the translational thermal energy

Summary of contributions to the inner energy U:
Electronic energy                ...    -93.31997640 Eh
Zero point energy                ...      0.01416854 Eh       8.89 kcal/mol
Thermal vibrational correction   ...      0.00005473 Eh       0.03 kcal/mol
Thermal rotational correction    ...      0.00141627 Eh       0.89 kcal/mol
Thermal translational correction ...      0.00141627 Eh       0.89 kcal/mol
-----------------------------------------------------------------------
Total thermal energy                    -93.30292059 Eh

Summary of corrections to the electronic energy:
(perhaps to be used in another calculation)
Total thermal correction                  0.00288727 Eh       1.81 kcal/mol
Non-thermal (ZPE) correction              0.01416854 Eh       8.89 kcal/mol
-----------------------------------------------------------------------
Total correction                          0.01705581 Eh      10.70 kcal/mol

--------
ENTHALPY
--------

The enthalpy is H = U + kB*T
                kB is Boltzmann's constant
Total free energy                 ...    -93.30292059 Eh
Thermal Enthalpy correction       ...      0.00094421 Eh       0.59 kcal/mol
-----------------------------------------------------------------------
Total Enthalpy                    ...    -93.30197638 Eh

Note: Rotational entropy computed according to Herzberg
Infrared and Raman Spectra, Chapter V,1, Van Nostrand Reinhold, 1945
Point Group:  Cinfv, Symmetry Number:   1
Rotational constants in cm-1: 1724633745.896403     1.516086     1.516086

Vibrational entropy computed according to the QRRHO of S. Grimme
Chem.Eur.J. 2012 18 9955

-------
ENTROPY
-------

The entropy contributions are T*S = T*(S(el)+S(vib)+S(rot)+S(trans))
     S(el)   - electronic entropy
     S(vib)  - vibrational entropy
     S(rot)  - rotational entropy
     S(trans)- translational entropy
The entropies will be listed as multiplied by the temperature to get
units of energy

Electronic entropy                ...      0.00000000 Eh      0.00 kcal/mol
Vibrational entropy               ...      0.00006727 Eh      0.04 kcal/mol
Rotational entropy                ...     -0.00092265 Eh     -0.58 kcal/mol
Translational entropy             ...      0.01701823 Eh     10.68 kcal/mol
-----------------------------------------------------------------------
Final entropy term                ...      0.01616285 Eh     10.14 kcal/mol

In case the symmetry of your molecule has not been determined correctly
or in case you have a reason to use a different symmetry number we print
out the resulting rotational entropy values for sn=1,12 :
 --------------------------------------------------------
|  sn= 1 | S(rot)=      -0.00092265 Eh     -0.58 kcal/mol|
|  sn= 2 | S(rot)=      -0.00157710 Eh     -0.99 kcal/mol|
|  sn= 3 | S(rot)=      -0.00195993 Eh     -1.23 kcal/mol|
|  sn= 4 | S(rot)=      -0.00223156 Eh     -1.40 kcal/mol|
|  sn= 5 | S(rot)=      -0.00244225 Eh     -1.53 kcal/mol|
|  sn= 6 | S(rot)=      -0.00261439 Eh     -1.64 kcal/mol|
|  sn= 7 | S(rot)=      -0.00275994 Eh     -1.73 kcal/mol|
|  sn= 8 | S(rot)=      -0.00288602 Eh     -1.81 kcal/mol|
|  sn= 9 | S(rot)=      -0.00299722 Eh     -1.88 kcal/mol|
|  sn=10 | S(rot)=      -0.00309670 Eh     -1.94 kcal/mol|
|  sn=11 | S(rot)=      -0.00318669 Eh     -2.00 kcal/mol|
|  sn=12 | S(rot)=      -0.00326885 Eh     -2.05 kcal/mol|
 --------------------------------------------------------

-------------------
GIBBS FREE ENERGY
-------------------

The Gibbs free energy is G = H - T*S

Total enthalpy                    ...    -93.30197638 Eh
Total entropy correction          ...     -0.01616285 Eh    -10.14 kcal/mol
-----------------------------------------------------------------------
Final Gibbs free energy         ...    -93.31813923 Eh

For completeness - the Gibbs free energy minus the electronic energy
G-E(el)                           ...      0.00183716 Eh      1.15 kcal/mol

                             ****ORCA TERMINATED NORMALLY****
TOTAL RUN TIME: 0 days 0 hours 3 minutes 18 seconds 175 msec
