                         Program Version 5.0.3 -  RELEASE  -
|  1> ! PAL5 PBE0 NumFreq
|  2> %method
|  3>         method DFT
|  4>         runtyp Energy
|  5> end
|  6> %basis
|  7>         basis "def2-TZVP"
|  8> end
|  9> %coords
| 10>         CTyp xyz
| 11>         Charge 0
| 12>         Mult 1
| 13>         Units Angs
| 14>         coords
| 15> 	#73.3
| 16> 	C      0.901162    0.213223   -0.028373
| 17> 	C      2.433052    0.225083   -0.148833
| 18> 	H      0.552152   -0.769852    0.295509
| 19> 	H      0.441622    0.444426   -0.991963
| 20> 	H      0.570738    0.956346    0.700881
| 21> 	H      2.763812   -0.521759   -0.874150
| 22> 	H      2.781611    1.206533   -0.477840
| 23> 	H      2.892631   -0.000931    0.815945
| 24> 	end
| 25> end
| 26> %eprnmr
| 27>         NMRShielding 1
| 28>         Nuclei = all C {shift}
| 29>         Nuclei = all H {shift}
| 30> endd                         ****END OF INPUT****

CARTESIAN COORDINATES (ANGSTROEM)
---------------------------------
  C      0.901162    0.213223   -0.028373
  C      2.433052    0.225083   -0.148833
  H      0.552152   -0.769852    0.295509
  H      0.441622    0.444426   -0.991963
  H      0.570738    0.956346    0.700881
  H      2.763812   -0.521759   -0.874150
  H      2.781611    1.206533   -0.477840
  H      2.892631   -0.000931    0.815945

 Total Charge           Charge          ....    0
 Multiplicity           Mult            ....    1
 Number of Electrons    NEL             ....   18
 Basis Dimension        Dim             ....   98

ORBITAL ENERGIES
----------------

  NO   OCC          E(Eh)            E(eV)
   0   2.0000     -10.207466      -277.7593
   1   2.0000     -10.207239      -277.7531
   2   2.0000      -0.773306       -21.0427
   3   2.0000      -0.631413       -17.1816
   4   2.0000      -0.448088       -12.1931
   5   2.0000      -0.448080       -12.1929
   6   2.0000      -0.373929       -10.1751
   7   2.0000      -0.354025        -9.6335
   8   2.0000      -0.354008        -9.6330
   9   0.0000       0.052020         1.4155
  10   0.0000       0.092548         2.5184
  11   0.0000       0.122251         3.3266
  12   0.0000       0.122262         3.3269
  13   0.0000       0.134175         3.6511

MULLIKEN ATOMIC CHARGES
-----------------------
   0 C :   -0.343672
   1 C :   -0.343669
   2 H :    0.114550
   3 H :    0.114554
   4 H :    0.114566
   5 H :    0.114565
   6 H :    0.114556
   7 H :    0.114551
Sum of atomic charges:   -0.0000000

LOEWDIN ATOMIC CHARGES
----------------------
   0 C :   -0.348273
   1 C :   -0.348266
   2 H :    0.116088
   3 H :    0.116089
   4 H :    0.116097
   5 H :    0.116104
   6 H :    0.116076
   7 H :    0.116086

  Mayer bond orders larger than 0.100000
B(  0-C ,  1-C ) :   1.0077 B(  0-C ,  2-H ) :   0.9730 B(  0-C ,  3-H ) :   0.9731
B(  0-C ,  4-H ) :   0.9731 B(  1-C ,  5-H ) :   0.9731 B(  1-C ,  6-H ) :   0.9730
B(  1-C ,  7-H ) :   0.9731

FINAL SINGLE POINT ENERGY       -79.750027395960

DIPOLE MOMENT
-------------
                                X             Y             Z
Electronic contribution:      0.00007       0.00012       0.00000
Nuclear contribution   :     -0.00006      -0.00012       0.00000
                        -----------------------------------------
Total Dipole Moment    :      0.00001       0.00001       0.00000
                        -----------------------------------------
Magnitude (a.u.)       :      0.00002
Magnitude (Debye)      :      0.00004

CHEMICAL SHIELDING SUMMARY (ppm)
--------------------------------

  Nucleus  Element    Isotropic     Anisotropy
  -------  -------  ------------   ------------
      0       C          178.393         13.577
      1       C          178.395         13.578
      2       H           30.825          9.041
      3       H           30.825          9.041
      4       H           30.826          9.040
      5       H           30.825          9.039
      6       H           30.826          9.042
      7       H           30.826          9.041

VIBRATIONAL FREQUENCIES
-----------------------

Scaling factor for frequencies =  1.000000000 (already applied!)

   0:         0.00 cm**-1
   1:         0.00 cm**-1
   2:         0.00 cm**-1
   3:         0.00 cm**-1
   4:         0.00 cm**-1
   5:         0.00 cm**-1
   6:       327.82 cm**-1
   7:       823.28 cm**-1
   8:       824.35 cm**-1
   9:       986.23 cm**-1
  10:      1216.90 cm**-1
  11:      1217.48 cm**-1
  12:      1385.40 cm**-1
  13:      1395.19 cm**-1
  14:      1492.82 cm**-1
  15:      1493.14 cm**-1
  16:      1494.22 cm**-1
  17:      1494.93 cm**-1
  18:      3045.30 cm**-1
  19:      3047.17 cm**-1
  20:      3112.47 cm**-1
  21:      3113.04 cm**-1
  22:      3136.46 cm**-1
  23:      3137.07 cm**-1

IR SPECTRUM
-----------

 Mode   freq       eps      Int      T**2         TX        TY        TZ
       cm**-1   L/(mol*cm) km/mol    a.u.
----------------------------------------------------------------------------
  6:    327.82   0.000004    0.02  0.000004  (-0.000179  0.001303 -0.001593)
  7:    823.28   0.001133    5.72  0.000429  ( 0.000701 -0.019404  0.007237)
  8:    824.35   0.001254    6.34  0.000475  ( 0.001763  0.008577  0.019955)
  9:    986.23   0.000000    0.00  0.000000  ( 0.000001  0.000001  0.000001)
 10:   1216.90   0.000000    0.00  0.000000  (-0.000000 -0.000013 -0.000030)
 11:   1217.48   0.000000    0.00  0.000000  ( 0.000001  0.000022 -0.000005)
 12:   1385.40   0.000676    3.42  0.000152  (-0.012297 -0.000311  0.001000)
 13:   1395.19   0.000000    0.00  0.000000  ( 0.000042 -0.000006 -0.000001)
 14:   1492.82   0.000000    0.00  0.000000  (-0.000017  0.000100 -0.000191)
 15:   1493.14   0.000003    0.01  0.000001  (-0.000066  0.000123 -0.000766)
 16:   1494.22   0.001757    8.88  0.000367  ( 0.001620 -0.005000  0.018419)
 17:   1494.93   0.002248   11.36  0.000469  (-0.000694 -0.020175 -0.007863)
 18:   3045.30   0.000035    0.18  0.000004  (-0.001887 -0.000085  0.000114)
 19:   3047.17   0.010321   52.16  0.001057  ( 0.032435  0.000536 -0.002169)
 20:   3112.47   0.000000    0.00  0.000000  (-0.000069  0.000090 -0.000058)
 21:   3113.04   0.000001    0.00  0.000000  ( 0.000059 -0.000266  0.000140)
 22:   3136.46   0.009644   48.74  0.000960  (-0.001276 -0.026209 -0.016462)
 23:   3137.07   0.009762   49.33  0.000971  (-0.002223  0.016421 -0.026390)

--------------------------
THERMOCHEMISTRY AT 298.15K
--------------------------

Temperature         ... 298.15 K
Pressure            ... 1.00 atm
Total Mass          ... 30.07 AMU

Throughout the following assumptions are being made:
  (1) The electronic state is orbitally nondegenerate
  (2) There are no thermally accessible electronically excited states
  (3) Hindered rotations indicated by low frequency modes are not
      treated as such but are treated as vibrations and this may
      cause some error
  (4) All equations used are the standard statistical mechanics
      equations for an ideal gas
  (5) All vibrations are strictly harmonic

freq.     327.82  E(vib)   ...       0.24
freq.     823.28  E(vib)   ...       0.05
freq.     824.35  E(vib)   ...       0.04
freq.     986.23  E(vib)   ...       0.02
freq.    1216.90  E(vib)   ...       0.01
freq.    1217.48  E(vib)   ...       0.01
freq.    1385.40  E(vib)   ...       0.00
freq.    1395.19  E(vib)   ...       0.00
freq.    1492.82  E(vib)   ...       0.00
freq.    1493.14  E(vib)   ...       0.00
freq.    1494.22  E(vib)   ...       0.00
freq.    1494.93  E(vib)   ...       0.00
freq.    3045.30  E(vib)   ...       0.00
freq.    3047.17  E(vib)   ...       0.00
freq.    3112.47  E(vib)   ...       0.00
freq.    3113.04  E(vib)   ...       0.00
freq.    3136.46  E(vib)   ...       0.00
freq.    3137.07  E(vib)   ...       0.00

------------
INNER ENERGY
------------

The inner energy is: U= E(el) + E(ZPE) + E(vib) + E(rot) + E(trans)
    E(el)   - is the total energy from the electronic structure calculation
              = E(kin-el) + E(nuc-el) + E(el-el) + E(nuc-nuc)
    E(ZPE)  - the the zero temperature vibrational energy from the frequency calculation
    E(vib)  - the the finite temperature correction to E(ZPE) due to population
              of excited vibrational states
    E(rot)  - is the rotational thermal energy
    E(trans)- is the translational thermal energy

Summary of contributions to the inner energy U:
Electronic energy                ...    -79.75002740 Eh
Zero point energy                ...      0.07459464 Eh      46.81 kcal/mol
Thermal vibrational correction   ...      0.00063598 Eh       0.40 kcal/mol
Thermal rotational correction    ...      0.00141627 Eh       0.89 kcal/mol
Thermal translational correction ...      0.00141627 Eh       0.89 kcal/mol
-----------------------------------------------------------------------
Total thermal energy                    -79.67196424 Eh

Summary of corrections to the electronic energy:
(perhaps to be used in another calculation)
Total thermal correction                  0.00346852 Eh       2.18 kcal/mol
Non-thermal (ZPE) correction              0.07459464 Eh      46.81 kcal/mol
-----------------------------------------------------------------------
Total correction                          0.07806316 Eh      48.99 kcal/mol

--------
ENTHALPY
--------

The enthalpy is H = U + kB*T
                kB is Boltzmann's constant
Total free energy                 ...    -79.67196424 Eh
Thermal Enthalpy correction       ...      0.00094421 Eh       0.59 kcal/mol
-----------------------------------------------------------------------
Total Enthalpy                    ...    -79.67102003 Eh

Note: Rotational entropy computed according to Herzberg
Infrared and Raman Spectra, Chapter V,1, Van Nostrand Reinhold, 1945
Point Group:  D3, Symmetry Number:   6
Rotational constants in cm-1:     2.659367     0.665332     0.665326

Vibrational entropy computed according to the QRRHO of S. Grimme
Chem.Eur.J. 2012 18 9955

-------
ENTROPY
-------

The entropy contributions are T*S = T*(S(el)+S(vib)+S(rot)+S(trans))
     S(el)   - electronic entropy
     S(vib)  - vibrational entropy
     S(rot)  - rotational entropy
     S(trans)- translational entropy
The entropies will be listed as multiplied by the temperature to get
units of energy

Electronic entropy                ...      0.00000000 Eh      0.00 kcal/mol
Vibrational entropy               ...      0.00090942 Eh      0.57 kcal/mol
Rotational entropy                ...      0.00774205 Eh      4.86 kcal/mol
Translational entropy             ...      0.01716939 Eh     10.77 kcal/mol
-----------------------------------------------------------------------
Final entropy term                ...      0.02582086 Eh     16.20 kcal/mol

In case the symmetry of your molecule has not been determined correctly
or in case you have a reason to use a different symmetry number we print
out the resulting rotational entropy values for sn=1,12 :
 --------------------------------------------------------
|  sn= 1 | S(rot)=       0.00943379 Eh      5.92 kcal/mol|
|  sn= 2 | S(rot)=       0.00877934 Eh      5.51 kcal/mol|
|  sn= 3 | S(rot)=       0.00839650 Eh      5.27 kcal/mol|
|  sn= 4 | S(rot)=       0.00812488 Eh      5.10 kcal/mol|
|  sn= 5 | S(rot)=       0.00791419 Eh      4.97 kcal/mol|
|  sn= 6 | S(rot)=       0.00774205 Eh      4.86 kcal/mol|
|  sn= 7 | S(rot)=       0.00759650 Eh      4.77 kcal/mol|
|  sn= 8 | S(rot)=       0.00747042 Eh      4.69 kcal/mol|
|  sn= 9 | S(rot)=       0.00735922 Eh      4.62 kcal/mol|
|  sn=10 | S(rot)=       0.00725974 Eh      4.56 kcal/mol|
|  sn=11 | S(rot)=       0.00716975 Eh      4.50 kcal/mol|
|  sn=12 | S(rot)=       0.00708759 Eh      4.45 kcal/mol|
 --------------------------------------------------------

-------------------
GIBBS FREE ENERGY
-------------------

The Gibbs free energy is G = H - T*S

Total enthalpy                    ...    -79.67102003 Eh
Total entropy correction          ...     -0.02582086 Eh    -16.20 kcal/mol
-----------------------------------------------------------------------
Final Gibbs free energy         ...    -79.69684089 Eh

For completeness - the Gibbs free energy minus the electronic energy
G-E(el)                           ...      0.05318651 Eh     33.37 kcal/mol

                             ****ORCA TERMINATED NORMALLY****
TOTAL RUN TIME: 0 days 0 hours 3 minutes 28 seconds 701 msec
