                         Program Version 5.0.3 -  RELEASE  -
|  1> ! PAL5 VWN
|  2> %method
|  3>         method DFT
|  4>         runtyp OPT
|  5> end
|  6>
|  7> %cpcm
|  8>        epsilon 80.4
|  9>        refrac 1.33
| 10>        fepstype cosmo
| 11> end
| 12> %scf
| 13>        MaxIter 1000
| 14> 	 CNVDIIS 1
| 15> 	 CNVSOSCF 1
| 16> end
| 17> %geom
| 18>        MaxIter 1000
| 19>        Convergence loose
| 20> end
| 21>
| 22> %basis
| 23>         basis "def2-SVP"
| 24> end
| 25> ! NumFreq
| 26> %elprop
| 27>         Polar 1
| 28> end
| 29> %output
| 30>         XYZFile true
| 31> end
| 32> %coords
| 33>         CTyp xyz
| 34>         Charge 0
| 35>         Mult 1
| 36>         Units Angs
| 37>         coords
| 38> 	Mn    2.123573    0.872756   0.0
| 39> 	O     0.500738    1.439585   0.0
| 40> 	O     3.943034    0.237503    0.0
| 41> 	H      3.861376    -0.749322    0.0
| 42>         end
| 43> endd                         ****END OF INPUT****
 Total Charge           Charge          ....    0
 Multiplicity           Mult            ....    1
 Number of Electrons    NEL             ....   42
FINAL SINGLE POINT ENERGY     -1298.260190215235
FINAL SINGLE POINT ENERGY     -1298.273495603798
FINAL SINGLE POINT ENERGY     -1298.298622680056
FINAL SINGLE POINT ENERGY     -1298.300789690279
FINAL SINGLE POINT ENERGY     -1298.302264644435
FINAL SINGLE POINT ENERGY     -1298.303708250564
FINAL SINGLE POINT ENERGY     -1298.308059345377
FINAL SINGLE POINT ENERGY     -1298.309356090971
FINAL SINGLE POINT ENERGY     -1298.310242187093
FINAL SINGLE POINT ENERGY     -1298.310689596192
FINAL SINGLE POINT ENERGY     -1298.331190432404
FINAL SINGLE POINT ENERGY     -1298.330315280517
FINAL SINGLE POINT ENERGY     -1298.331137516365
FINAL SINGLE POINT ENERGY     -1298.327259242198
FINAL SINGLE POINT ENERGY     -1298.330601745785
FINAL SINGLE POINT ENERGY     -1298.328753116526
FINAL SINGLE POINT ENERGY     -1298.331166425844
FINAL SINGLE POINT ENERGY     -1298.331211575983
FINAL SINGLE POINT ENERGY     -1298.331225567906
                    ***********************HURRAY********************

CARTESIAN COORDINATES (ANGSTROEM)
---------------------------------
  Mn     1.686968    0.295178    0.011221
  O      1.382731    1.796167    0.036324
  O      3.228319   -0.303116   -0.133601
  H      4.130703    0.012294    0.086057

 Multiplicity           Mult            ....    1
 Number of Electrons    NEL             ....   42
 Basis Dimension        Dim             ....   64

ORBITAL ENERGIES
----------------

  NO   OCC          E(Eh)            E(eV)
   0   2.0000    -233.615854     -6357.0106
   1   2.0000     -26.822852      -729.8869
   2   2.0000     -23.050038      -627.2234
   3   2.0000     -23.033710      -626.7791
   4   2.0000     -23.018234      -626.3580
   5   2.0000     -18.639462      -507.2055
   6   2.0000     -18.639086      -507.1953
   7   2.0000      -3.006841       -81.8203
   8   2.0000      -1.969014       -53.5796
   9   2.0000      -1.927187       -52.4414
  10   2.0000      -1.881347       -51.1941
  11   2.0000      -0.882726       -24.0202
  12   2.0000      -0.817932       -22.2571
  13   2.0000      -0.477156       -12.9841
  14   2.0000      -0.366234        -9.9657
  15   2.0000      -0.339525        -9.2389
  16   2.0000      -0.334648        -9.1062
  17   2.0000      -0.320166        -8.7122
  18   2.0000      -0.307848        -8.3770
  19   2.0000      -0.155646        -4.2353
  20   2.0000      -0.153861        -4.1868
  21   0.0000      -0.167739        -4.5644
  22   0.0000      -0.132096        -3.5945
  23   0.0000      -0.103954        -2.8287
  24   0.0000      -0.036763        -1.0004
  25   0.0000       0.062104         1.6899

MULLIKEN ATOMIC CHARGES
-----------------------
   0 Mn:    0.497891
   1 O :   -0.371855
   2 O :   -0.409888
   3 H :    0.283852
Sum of atomic charges:    0.0000000

LOEWDIN ATOMIC CHARGES
----------------------
   0 Mn:    0.133335
   1 O :   -0.156689
   2 O :   -0.117469
   3 H :    0.140824

  Mayer bond orders larger than 0.100000
B(  0-Mn,  1-O ) :   2.2552 B(  0-Mn,  2-O ) :   1.2974 B(  1-O ,  2-O ) :   0.1345
B(  2-O ,  3-H ) :   0.9065

FINAL SINGLE POINT ENERGY     -1298.331230694785

DIPOLE MOMENT
-------------
                                X             Y             Z
Electronic contribution:     -2.64982      -1.11232       0.22185
Nuclear contribution   :      3.23522       0.33589      -0.00797
                        -----------------------------------------
Total Dipole Moment    :      0.58540      -0.77643       0.21388
                        -----------------------------------------
Magnitude (a.u.)       :      0.99563
Magnitude (Debye)      :      2.53070

VIBRATIONAL FREQUENCIES
-----------------------

Scaling factor for frequencies =  1.000000000 (already applied!)

   0:         0.00 cm**-1
   1:         0.00 cm**-1
   2:         0.00 cm**-1
   3:         0.00 cm**-1
   4:         0.00 cm**-1
   5:         0.00 cm**-1
   6:       141.43 cm**-1
   7:       252.48 cm**-1
   8:       514.68 cm**-1
   9:       846.81 cm**-1
  10:      1078.64 cm**-1
  11:      3687.58 cm**-1

IR SPECTRUM
-----------

 Mode   freq       eps      Int      T**2         TX        TY        TZ
       cm**-1   L/(mol*cm) km/mol    a.u.
----------------------------------------------------------------------------
  6:    141.43   0.043118  217.90  0.095139  (-0.144501 -0.000221  0.272505)
  7:    252.48   0.012028   60.78  0.014866  (-0.007652  0.061491 -0.105008)
  8:    514.68   0.040642  205.39  0.024642  (-0.063635  0.141957  0.020996)
  9:    846.81   0.022073  111.55  0.008134  ( 0.089363 -0.011819  0.002978)
 10:   1078.64   0.042863  216.61  0.012401  (-0.049384  0.099743  0.003670)
 11:   3687.58   0.115075  581.54  0.009738  ( 0.098140  0.001333  0.010253)

--------------------------
THERMOCHEMISTRY AT 298.15K
--------------------------

Temperature         ... 298.15 K
Pressure            ... 1.00 atm
Total Mass          ... 87.95 AMU

Throughout the following assumptions are being made:
  (1) The electronic state is orbitally nondegenerate
  (2) There are no thermally accessible electronically excited states
  (3) Hindered rotations indicated by low frequency modes are not
      treated as such but are treated as vibrations and this may
      cause some error
  (4) All equations used are the standard statistical mechanics
      equations for an ideal gas
  (5) All vibrations are strictly harmonic

freq.     141.43  E(vib)   ...       0.41
freq.     252.48  E(vib)   ...       0.30
freq.     514.68  E(vib)   ...       0.13
freq.     846.81  E(vib)   ...       0.04
freq.    1078.64  E(vib)   ...       0.02
freq.    3687.58  E(vib)   ...       0.00

------------
INNER ENERGY
------------

The inner energy is: U= E(el) + E(ZPE) + E(vib) + E(rot) + E(trans)
    E(el)   - is the total energy from the electronic structure calculation
              = E(kin-el) + E(nuc-el) + E(el-el) + E(nuc-nuc)
    E(ZPE)  - the the zero temperature vibrational energy from the frequency calculation
    E(vib)  - the the finite temperature correction to E(ZPE) due to population
              of excited vibrational states
    E(rot)  - is the rotational thermal energy
    E(trans)- is the translational thermal energy

Summary of contributions to the inner energy U:
Electronic energy                ...  -1298.33123070 Eh
Zero point energy                ...      0.01485734 Eh       9.32 kcal/mol
Thermal vibrational correction   ...      0.00144794 Eh       0.91 kcal/mol
Thermal rotational correction    ...      0.00141627 Eh       0.89 kcal/mol
Thermal translational correction ...      0.00141627 Eh       0.89 kcal/mol
-----------------------------------------------------------------------
Total thermal energy                  -1298.31209287 Eh

Summary of corrections to the electronic energy:
(perhaps to be used in another calculation)
Total thermal correction                  0.00428048 Eh       2.69 kcal/mol
Non-thermal (ZPE) correction              0.01485734 Eh       9.32 kcal/mol
-----------------------------------------------------------------------
Total correction                          0.01913783 Eh      12.01 kcal/mol

--------
ENTHALPY
--------

The enthalpy is H = U + kB*T
                kB is Boltzmann's constant
Total free energy                 ...  -1298.31209287 Eh
Thermal Enthalpy correction       ...      0.00094421 Eh       0.59 kcal/mol
-----------------------------------------------------------------------
Total Enthalpy                    ...  -1298.31114867 Eh

Note: Only C1 symmetry has been detected, increase convergence thresholds
      if your molecule has a higher symmetry. Symmetry factor of 1.0 is
      used for the rotational entropy correction.

Note: Rotational entropy computed according to Herzberg
Infrared and Raman Spectra, Chapter V,1, Van Nostrand Reinhold, 1945
Point Group:  C1, Symmetry Number:   1
Rotational constants in cm-1:     1.250083     0.254045     0.211546

Vibrational entropy computed according to the QRRHO of S. Grimme
Chem.Eur.J. 2012 18 9955

-------
ENTROPY
-------

The entropy contributions are T*S = T*(S(el)+S(vib)+S(rot)+S(trans))
     S(el)   - electronic entropy
     S(vib)  - vibrational entropy
     S(rot)  - rotational entropy
     S(trans)- translational entropy
The entropies will be listed as multiplied by the temperature to get
units of energy

Electronic entropy                ...      0.00000000 Eh      0.00 kcal/mol
Vibrational entropy               ...      0.00252400 Eh      1.58 kcal/mol
Rotational entropy                ...      0.01078562 Eh      6.77 kcal/mol
Translational entropy             ...      0.01868933 Eh     11.73 kcal/mol
-----------------------------------------------------------------------
Final entropy term                ...      0.03199894 Eh     20.08 kcal/mol

In case the symmetry of your molecule has not been determined correctly
or in case you have a reason to use a different symmetry number we print
out the resulting rotational entropy values for sn=1,12 :
 --------------------------------------------------------
|  sn= 1 | S(rot)=       0.01078562 Eh      6.77 kcal/mol|
|  sn= 2 | S(rot)=       0.01013116 Eh      6.36 kcal/mol|
|  sn= 3 | S(rot)=       0.00974833 Eh      6.12 kcal/mol|
|  sn= 4 | S(rot)=       0.00947670 Eh      5.95 kcal/mol|
|  sn= 5 | S(rot)=       0.00926602 Eh      5.81 kcal/mol|
|  sn= 6 | S(rot)=       0.00909387 Eh      5.71 kcal/mol|
|  sn= 7 | S(rot)=       0.00894833 Eh      5.62 kcal/mol|
|  sn= 8 | S(rot)=       0.00882225 Eh      5.54 kcal/mol|
|  sn= 9 | S(rot)=       0.00871104 Eh      5.47 kcal/mol|
|  sn=10 | S(rot)=       0.00861156 Eh      5.40 kcal/mol|
|  sn=11 | S(rot)=       0.00852157 Eh      5.35 kcal/mol|
|  sn=12 | S(rot)=       0.00843942 Eh      5.30 kcal/mol|
 --------------------------------------------------------

-------------------
GIBBS FREE ENERGY
-------------------

The Gibbs free energy is G = H - T*S

Total enthalpy                    ...  -1298.31114867 Eh
Total entropy correction          ...     -0.03199894 Eh    -20.08 kcal/mol
-----------------------------------------------------------------------
Final Gibbs free energy         ...  -1298.34314761 Eh

For completeness - the Gibbs free energy minus the electronic energy
G-E(el)                           ...     -0.01191691 Eh     -7.48 kcal/mol

                             ****ORCA TERMINATED NORMALLY****
TOTAL RUN TIME: 0 days 0 hours 14 minutes 20 seconds 170 msec
