                         Program Version 5.0.3 -  RELEASE  -
|  1> ! PBE0 NumFreq
|  2> %method
|  3>         method DFT
|  4>         runtyp Energy
|  5> end
|  6> %basis
|  7>         basis "def2-TZVP"
|  8> end
|  9> %coords
| 10>         CTyp xyz
| 11>         Charge 0
| 12>         Mult 1
| 13>         Units Angs
| 14>         coords
| 15> 	#165
| 16> 	N     -1.011290    0.960957    0.000001
| 17> 	C      0.105157    0.905748   -0.299168
| 18> 	H     -2.068270    1.013340    0.000003
| 19> 	end
| 20> end
| 21> %eprnmr
| 22>         NMRShielding 1
| 23>         Nuclei = all N {shift}
| 24>         Nuclei = all C {shift}
| 25>         Nuclei = all H {shift}
| 26> end
| 27>
| 28>                          ****END OF INPUT****

CARTESIAN COORDINATES (ANGSTROEM)
---------------------------------
  N     -1.011290    0.960957    0.000001
  C      0.105157    0.905748   -0.299168
  H     -2.068270    1.013340    0.000003

 Total Charge           Charge          ....    0
 Multiplicity           Mult            ....    1
 Number of Electrons    NEL             ....   14
 Basis Dimension        Dim             ....   68

ORBITAL ENERGIES
----------------

  NO   OCC          E(Eh)            E(eV)
   0   2.0000     -14.428218      -392.6118
   1   2.0000     -10.275022      -279.5976
   2   2.0000      -0.980612       -26.6838
   3   2.0000      -0.668339       -18.1864
   4   2.0000      -0.401482       -10.9249
   5   2.0000      -0.399631       -10.8745
   6   2.0000      -0.334162        -9.0930
   7   0.0000       0.001266         0.0344
   8   0.0000       0.021260         0.5785
   9   0.0000       0.035805         0.9743
  10   0.0000       0.143669         3.9094
  11   0.0000       0.230605         6.2751

MULLIKEN ATOMIC CHARGES
-----------------------
   0 N :   -0.154809
   1 C :   -0.170176
   2 H :    0.324985
Sum of atomic charges:    0.0000000

LOEWDIN ATOMIC CHARGES
----------------------
   0 N :    0.043553
   1 C :   -0.245951
   2 H :    0.202397

  Mayer bond orders larger than 0.100000
B(  0-N ,  1-C ) :   2.4617 B(  0-N ,  2-H ) :   0.8509

FINAL SINGLE POINT ENERGY       -93.319192062778

DIPOLE MOMENT
-------------
                                X             Y             Z
Electronic contribution:      0.16559      -0.00820      -0.01659
Nuclear contribution   :     -1.42266       0.07046       0.12547
                        -----------------------------------------
Total Dipole Moment    :     -1.25708       0.06225       0.10888
                        -----------------------------------------
Magnitude (a.u.)       :      1.26332
Magnitude (Debye)      :      3.21110

CHEMICAL SHIELDING SUMMARY (ppm)
--------------------------------

  Nucleus  Element    Isotropic     Anisotropy
  -------  -------  ------------   ------------
      0       N           96.624        370.922
      1       C            9.593        390.772
      2       H           25.551         19.188

VIBRATIONAL FREQUENCIES
-----------------------

Scaling factor for frequencies =  1.000000000 (already applied!)

   0:         0.00 cm**-1
   1:         0.00 cm**-1
   2:         0.00 cm**-1
   3:         0.00 cm**-1
   4:         0.00 cm**-1
   5:         0.00 cm**-1
   6:       902.35 cm**-1
   7:      2153.55 cm**-1
   8:      3170.63 cm**-1

IR SPECTRUM
-----------

 Mode   freq       eps      Int      T**2         TX        TY        TZ
       cm**-1   L/(mol*cm) km/mol    a.u.
----------------------------------------------------------------------------
  6:    902.35   0.029393  148.54  0.010165  (-0.014278  0.000664  0.099804)
  7:   2153.55   0.009761   49.33  0.001414  ( 0.033939 -0.001657 -0.016117)
  8:   3170.63   0.055261  279.27  0.005439  (-0.073494  0.003697  0.004891)

--------------------------
THERMOCHEMISTRY AT 298.15K
--------------------------

Temperature         ... 298.15 K
Pressure            ... 1.00 atm
Total Mass          ... 27.03 AMU

Throughout the following assumptions are being made:
  (1) The electronic state is orbitally nondegenerate
  (2) There are no thermally accessible electronically excited states
  (3) Hindered rotations indicated by low frequency modes are not
      treated as such but are treated as vibrations and this may
      cause some error
  (4) All equations used are the standard statistical mechanics
      equations for an ideal gas
  (5) All vibrations are strictly harmonic

freq.     902.35  E(vib)   ...       0.03
freq.    2153.55  E(vib)   ...       0.00
freq.    3170.63  E(vib)   ...       0.00

------------
INNER ENERGY
------------

The inner energy is: U= E(el) + E(ZPE) + E(vib) + E(rot) + E(trans)
    E(el)   - is the total energy from the electronic structure calculation
              = E(kin-el) + E(nuc-el) + E(el-el) + E(nuc-nuc)
    E(ZPE)  - the the zero temperature vibrational energy from the frequency calculation
    E(vib)  - the the finite temperature correction to E(ZPE) due to population
              of excited vibrational states
    E(rot)  - is the rotational thermal energy
    E(trans)- is the translational thermal energy

Summary of contributions to the inner energy U:
Electronic energy                ...    -93.31919206 Eh
Zero point energy                ...      0.01418510 Eh       8.90 kcal/mol
Thermal vibrational correction   ...      0.00005383 Eh       0.03 kcal/mol
Thermal rotational correction    ...      0.00141627 Eh       0.89 kcal/mol
Thermal translational correction ...      0.00141627 Eh       0.89 kcal/mol
-----------------------------------------------------------------------
Total thermal energy                    -93.30212060 Eh

Summary of corrections to the electronic energy:
(perhaps to be used in another calculation)
Total thermal correction                  0.00288637 Eh       1.81 kcal/mol
Non-thermal (ZPE) correction              0.01418510 Eh       8.90 kcal/mol
-----------------------------------------------------------------------
Total correction                          0.01707147 Eh      10.71 kcal/mol

--------
ENTHALPY
--------

The enthalpy is H = U + kB*T
                kB is Boltzmann's constant
Total free energy                 ...    -93.30212060 Eh
Thermal Enthalpy correction       ...      0.00094421 Eh       0.59 kcal/mol
-----------------------------------------------------------------------
Total Enthalpy                    ...    -93.30117639 Eh

Note: Rotational entropy computed according to Herzberg
Infrared and Raman Spectra, Chapter V,1, Van Nostrand Reinhold, 1945
Point Group:  Cs, Symmetry Number:   1
Rotational constants in cm-1:   295.488186     1.529060     1.521189

Vibrational entropy computed according to the QRRHO of S. Grimme
Chem.Eur.J. 2012 18 9955

-------
ENTROPY
-------

The entropy contributions are T*S = T*(S(el)+S(vib)+S(rot)+S(trans))
     S(el)   - electronic entropy
     S(vib)  - vibrational entropy
     S(rot)  - rotational entropy
     S(trans)- translational entropy
The entropies will be listed as multiplied by the temperature to get
units of energy

Electronic entropy                ...      0.00000000 Eh      0.00 kcal/mol
Vibrational entropy               ...      0.00006610 Eh      0.04 kcal/mol
Rotational entropy                ...      0.00642675 Eh      4.03 kcal/mol
Translational entropy             ...      0.01701823 Eh     10.68 kcal/mol
-----------------------------------------------------------------------
Final entropy term                ...      0.02351109 Eh     14.75 kcal/mol

In case the symmetry of your molecule has not been determined correctly
or in case you have a reason to use a different symmetry number we print
out the resulting rotational entropy values for sn=1,12 :
 --------------------------------------------------------
|  sn= 1 | S(rot)=       0.00642675 Eh      4.03 kcal/mol|
|  sn= 2 | S(rot)=       0.00577229 Eh      3.62 kcal/mol|
|  sn= 3 | S(rot)=       0.00538946 Eh      3.38 kcal/mol|
|  sn= 4 | S(rot)=       0.00511784 Eh      3.21 kcal/mol|
|  sn= 5 | S(rot)=       0.00490715 Eh      3.08 kcal/mol|
|  sn= 6 | S(rot)=       0.00473500 Eh      2.97 kcal/mol|
|  sn= 7 | S(rot)=       0.00458946 Eh      2.88 kcal/mol|
|  sn= 8 | S(rot)=       0.00446338 Eh      2.80 kcal/mol|
|  sn= 9 | S(rot)=       0.00435217 Eh      2.73 kcal/mol|
|  sn=10 | S(rot)=       0.00425269 Eh      2.67 kcal/mol|
|  sn=11 | S(rot)=       0.00416270 Eh      2.61 kcal/mol|
|  sn=12 | S(rot)=       0.00408055 Eh      2.56 kcal/mol|
 --------------------------------------------------------

-------------------
GIBBS FREE ENERGY
-------------------

The Gibbs free energy is G = H - T*S

Total enthalpy                    ...    -93.30117639 Eh
Total entropy correction          ...     -0.02351109 Eh    -14.75 kcal/mol
-----------------------------------------------------------------------
Final Gibbs free energy         ...    -93.32468748 Eh

For completeness - the Gibbs free energy minus the electronic energy
G-E(el)                           ...     -0.00549541 Eh     -3.45 kcal/mol

                             ****ORCA TERMINATED NORMALLY****
TOTAL RUN TIME: 0 days 0 hours 3 minutes 8 seconds 64 msec
