                         Program Version 5.0.3 -  RELEASE  -
|  1> ! PBE0 NumFreq
|  2> %method
|  3>         method DFT
|  4>         runtyp Energy
|  5> end
|  6> %basis
|  7>         basis "def2-TZVP"
|  8> end
|  9> %coords
| 10>         CTyp xyz
| 11>         Charge 0
| 12>         Mult 1
| 13>         Units Angs
| 14>         coords
| 15> 	#45
| 16> 	N     -1.011290    0.960957    0.000001
| 17> 	C     -1.825747    1.001235   -0.820998
| 18> 	H     -2.068270    1.013340    0.000003
| 19>         end
| 20> end
| 21> %eprnmr
| 22>         NMRShielding 1
| 23>         Nuclei = all N {shift}
| 24>         Nuclei = all C {shift}
| 25>         Nuclei = all H {shift}
| 26> end
| 27>
| 28>                          ****END OF INPUT****

CARTESIAN COORDINATES (ANGSTROEM)
---------------------------------
  N     -1.011290    0.960957    0.000001
  C     -1.825747    1.001235   -0.820998
  H     -2.068270    1.013340    0.000003

 Total Charge           Charge          ....    0
 Multiplicity           Mult            ....    1
 Number of Electrons    NEL             ....   14
 Basis Dimension        Dim             ....   68

ORBITAL ENERGIES
----------------

  NO   OCC          E(Eh)            E(eV)
   0   2.0000     -14.472610      -393.8197
   1   2.0000     -10.285493      -279.8825
   2   2.0000      -1.138783       -30.9878
   3   2.0000      -0.594193       -16.1688
   4   2.0000      -0.488496       -13.2926
   5   2.0000      -0.440589       -11.9890
   6   2.0000      -0.366593        -9.9755
   7   0.0000      -0.046981        -1.2784
   8   0.0000       0.002306         0.0628
   9   0.0000       0.102544         2.7904
  10   0.0000       0.163894         4.4598
  11   0.0000       0.205827         5.6008

MULLIKEN ATOMIC CHARGES
-----------------------
   0 N :    0.079153
   1 C :   -0.270659
   2 H :    0.191506
Sum of atomic charges:    0.0000000

LOEWDIN ATOMIC CHARGES
----------------------
   0 N :    0.196185
   1 C :   -0.210330
   2 H :    0.014144

  Mayer bond orders larger than 0.100000
B(  0-N ,  1-C ) :   2.1915 B(  0-N ,  2-H ) :   0.4302 B(  1-C ,  2-H ) :   0.6527

FINAL SINGLE POINT ENERGY       -93.162891770185

DIPOLE MOMENT
-------------
                                X             Y             Z
Electronic contribution:      0.50889      -0.02523      -0.10501
Nuclear contribution   :     -0.61285       0.03041       0.34432
                        -----------------------------------------
Total Dipole Moment    :     -0.10397       0.00518       0.23932
                        -----------------------------------------
Magnitude (a.u.)       :      0.26097
Magnitude (Debye)      :      0.66334

CHEMICAL SHIELDING SUMMARY (ppm)
--------------------------------

  Nucleus  Element    Isotropic     Anisotropy
  -------  -------  ------------   ------------
      0       N         -141.288       -466.391
      1       C           16.975        412.695
      2       H           47.412         27.860

VIBRATIONAL FREQUENCIES
-----------------------

Scaling factor for frequencies =  1.000000000 (already applied!)

   0:         0.00 cm**-1
   1:         0.00 cm**-1
   2:         0.00 cm**-1
   3:         0.00 cm**-1
   4:         0.00 cm**-1
   5:         0.00 cm**-1
   6:     -1225.41 cm**-1 ***imaginary mode***
   7:      2253.69 cm**-1
   8:      5975.90 cm**-1

IR SPECTRUM
-----------

 Mode   freq       eps      Int      T**2         TX        TY        TZ
       cm**-1   L/(mol*cm) km/mol    a.u.
----------------------------------------------------------------------------
  7:   2253.69   0.001505    7.61  0.000208  ( 0.005661 -0.000278  0.013279)
  8:   5975.90   0.023539  118.96  0.001229  (-0.032347  0.001612  0.013427)

--------------------------
THERMOCHEMISTRY AT 298.15K
--------------------------

Temperature         ... 298.15 K
Pressure            ... 1.00 atm
Total Mass          ... 27.03 AMU

Throughout the following assumptions are being made:
  (1) The electronic state is orbitally nondegenerate
  (2) There are no thermally accessible electronically excited states
  (3) Hindered rotations indicated by low frequency modes are not
      treated as such but are treated as vibrations and this may
      cause some error
  (4) All equations used are the standard statistical mechanics
      equations for an ideal gas
  (5) All vibrations are strictly harmonic

freq.    2253.69  E(vib)   ...       0.00
freq.    5975.90  E(vib)   ...       0.00

------------
INNER ENERGY
------------

The inner energy is: U= E(el) + E(ZPE) + E(vib) + E(rot) + E(trans)
    E(el)   - is the total energy from the electronic structure calculation
              = E(kin-el) + E(nuc-el) + E(el-el) + E(nuc-nuc)
    E(ZPE)  - the the zero temperature vibrational energy from the frequency calculation
    E(vib)  - the the finite temperature correction to E(ZPE) due to population
              of excited vibrational states
    E(rot)  - is the rotational thermal energy
    E(trans)- is the translational thermal energy

Summary of contributions to the inner energy U:
Electronic energy                ...    -93.16289177 Eh
Zero point energy                ...      0.01874837 Eh      11.76 kcal/mol
Thermal vibrational correction   ...      0.00000019 Eh       0.00 kcal/mol
Thermal rotational correction    ...      0.00141627 Eh       0.89 kcal/mol
Thermal translational correction ...      0.00141627 Eh       0.89 kcal/mol
-----------------------------------------------------------------------
Total thermal energy                    -93.14131066 Eh

Summary of corrections to the electronic energy:
(perhaps to be used in another calculation)
Total thermal correction                  0.00283274 Eh       1.78 kcal/mol
Non-thermal (ZPE) correction              0.01874837 Eh      11.76 kcal/mol
-----------------------------------------------------------------------
Total correction                          0.02158111 Eh      13.54 kcal/mol

--------
ENTHALPY
--------

The enthalpy is H = U + kB*T
                kB is Boltzmann's constant
Total free energy                 ...    -93.14131066 Eh
Thermal Enthalpy correction       ...      0.00094421 Eh       0.59 kcal/mol
-----------------------------------------------------------------------
Total Enthalpy                    ...    -93.14036645 Eh

Note: Rotational entropy computed according to Herzberg
Infrared and Raman Spectra, Chapter V,1, Van Nostrand Reinhold, 1945
Point Group:  Cs, Symmetry Number:   1
Rotational constants in cm-1:    30.978373     1.936629     1.822683

Vibrational entropy computed according to the QRRHO of S. Grimme
Chem.Eur.J. 2012 18 9955

-------
ENTROPY
-------

The entropy contributions are T*S = T*(S(el)+S(vib)+S(rot)+S(trans))
     S(el)   - electronic entropy
     S(vib)  - vibrational entropy
     S(rot)  - rotational entropy
     S(trans)- translational entropy
The entropies will be listed as multiplied by the temperature to get
units of energy

Electronic entropy                ...      0.00000000 Eh      0.00 kcal/mol
Vibrational entropy               ...      0.00000021 Eh      0.00 kcal/mol
Rotational entropy                ...      0.00729456 Eh      4.58 kcal/mol
Translational entropy             ...      0.01701823 Eh     10.68 kcal/mol
-----------------------------------------------------------------------
Final entropy term                ...      0.02431300 Eh     15.26 kcal/mol

In case the symmetry of your molecule has not been determined correctly
or in case you have a reason to use a different symmetry number we print
out the resulting rotational entropy values for sn=1,12 :
 --------------------------------------------------------
|  sn= 1 | S(rot)=       0.00729456 Eh      4.58 kcal/mol|
|  sn= 2 | S(rot)=       0.00664010 Eh      4.17 kcal/mol|
|  sn= 3 | S(rot)=       0.00625727 Eh      3.93 kcal/mol|
|  sn= 4 | S(rot)=       0.00598565 Eh      3.76 kcal/mol|
|  sn= 5 | S(rot)=       0.00577496 Eh      3.62 kcal/mol|
|  sn= 6 | S(rot)=       0.00560281 Eh      3.52 kcal/mol|
|  sn= 7 | S(rot)=       0.00545727 Eh      3.42 kcal/mol|
|  sn= 8 | S(rot)=       0.00533119 Eh      3.35 kcal/mol|
|  sn= 9 | S(rot)=       0.00521998 Eh      3.28 kcal/mol|
|  sn=10 | S(rot)=       0.00512050 Eh      3.21 kcal/mol|
|  sn=11 | S(rot)=       0.00503051 Eh      3.16 kcal/mol|
|  sn=12 | S(rot)=       0.00494836 Eh      3.11 kcal/mol|
 --------------------------------------------------------

-------------------
GIBBS FREE ENERGY
-------------------

The Gibbs free energy is G = H - T*S

Total enthalpy                    ...    -93.14036645 Eh
Total entropy correction          ...     -0.02431300 Eh    -15.26 kcal/mol
-----------------------------------------------------------------------
Final Gibbs free energy         ...    -93.16467946 Eh

For completeness - the Gibbs free energy minus the electronic energy
G-E(el)                           ...     -0.00178769 Eh     -1.12 kcal/mol

                             ****ORCA TERMINATED NORMALLY****
TOTAL RUN TIME: 0 days 0 hours 3 minutes 20 seconds 683 msec
