                         Program Version 5.0.3 -  RELEASE  -
|  1> ! PAL5 PBE0 NumFreq
|  2> %method
|  3>         method DFT
|  4>         runtyp Energy
|  5> end
|  6> %basis
|  7>         basis "def2-TZVP"
|  8> end
|  9> %coords
| 10>         CTyp xyz
| 11>         Charge 0
| 12>         Mult 1
| 13>         Units Angs
| 14>         coords
| 15> 	#43.3
| 16> 	C      0.901162    0.213223   -0.028373
| 17> 	C      2.433052    0.225083   -0.148833
| 18> 	H      0.584926   -0.496702    0.739184
| 19> 	H      0.446745   -0.077433   -0.978195
| 20> 	H      0.532839    1.205037    0.243407
| 21> 	H      2.763812   -0.521759   -0.874150
| 22> 	H      2.781611    1.206533   -0.477840
| 23> 	H      2.892631   -0.000931    0.815945
| 24> 	end
| 25> end
| 26> %eprnmr
| 27>         NMRShielding 1
| 28>         Nuclei = all C {shift}
| 29>         Nuclei = all H {shift}
| 30> endd                         ****END OF INPUT****

CARTESIAN COORDINATES (ANGSTROEM)
---------------------------------
  C      0.901162    0.213223   -0.028373
  C      2.433052    0.225083   -0.148833
  H      0.584926   -0.496702    0.739184
  H      0.446745   -0.077433   -0.978195
  H      0.532839    1.205037    0.243407
  H      2.763812   -0.521759   -0.874150
  H      2.781611    1.206533   -0.477840
  H      2.892631   -0.000931    0.815945

 Total Charge           Charge          ....    0
 Multiplicity           Mult            ....    1
 Number of Electrons    NEL             ....   18
 Basis Dimension        Dim             ....   98

ORBITAL ENERGIES
----------------

  NO   OCC          E(Eh)            E(eV)
   0   2.0000     -10.206808      -277.7414
   1   2.0000     -10.206585      -277.7353
   2   2.0000      -0.773206       -21.0400
   3   2.0000      -0.631021       -17.1710
   4   2.0000      -0.448660       -12.2087
   5   2.0000      -0.448648       -12.2083
   6   2.0000      -0.373732       -10.1698
   7   2.0000      -0.352622        -9.5953
   8   2.0000      -0.352605        -9.5949
   9   0.0000       0.052730         1.4348
  10   0.0000       0.091135         2.4799
  11   0.0000       0.108278         2.9464
  12   0.0000       0.108280         2.9464
  13   0.0000       0.158409         4.3105

MULLIKEN ATOMIC CHARGES
-----------------------
   0 C :   -0.345486
   1 C :   -0.345648
   2 H :    0.115111
   3 H :    0.115227
   4 H :    0.115209
   5 H :    0.115137
   6 H :    0.115230
   7 H :    0.115220
Sum of atomic charges:   -0.0000000

LOEWDIN ATOMIC CHARGES
----------------------
   0 C :   -0.349137
   1 C :   -0.349137
   2 H :    0.116370
   3 H :    0.116381
   4 H :    0.116388
   5 H :    0.116388
   6 H :    0.116368
   7 H :    0.116379

  Mayer bond orders larger than 0.100000
B(  0-C ,  1-C ) :   0.9950 B(  0-C ,  2-H ) :   0.9747 B(  0-C ,  3-H ) :   0.9748
B(  0-C ,  4-H ) :   0.9748 B(  1-C ,  5-H ) :   0.9747 B(  1-C ,  6-H ) :   0.9748
B(  1-C ,  7-H ) :   0.9748

FINAL SINGLE POINT ENERGY       -79.747874610373

DIPOLE MOMENT
-------------
                                X             Y             Z
Electronic contribution:      0.00009       0.00016       0.00004
Nuclear contribution   :     -0.00006      -0.00013      -0.00002
                        -----------------------------------------
Total Dipole Moment    :      0.00003       0.00003       0.00002
                        -----------------------------------------
Magnitude (a.u.)       :      0.00005
Magnitude (Debye)      :      0.00011

CHEMICAL SHIELDING SUMMARY (ppm)
--------------------------------

  Nucleus  Element    Isotropic     Anisotropy
  -------  -------  ------------   ------------
      0       C          180.893         16.575
      1       C          180.895         16.577
      2       H           30.808          9.116
      3       H           30.806          9.113
      4       H           30.805          9.113
      5       H           30.807          9.114
      6       H           30.808          9.113
      7       H           30.807          9.112

VIBRATIONAL FREQUENCIES
-----------------------

Scaling factor for frequencies =  1.000000000 (already applied!)

   0:         0.00 cm**-1
   1:         0.00 cm**-1
   2:         0.00 cm**-1
   3:         0.00 cm**-1
   4:         0.00 cm**-1
   5:         0.00 cm**-1
   6:       160.71 cm**-1
   7:       866.56 cm**-1
   8:       867.49 cm**-1
   9:      1004.92 cm**-1
  10:      1201.60 cm**-1
  11:      1202.23 cm**-1
  12:      1386.06 cm**-1
  13:      1407.73 cm**-1
  14:      1492.20 cm**-1
  15:      1492.68 cm**-1
  16:      1499.09 cm**-1
  17:      1499.38 cm**-1
  18:      3044.23 cm**-1
  19:      3046.48 cm**-1
  20:      3111.84 cm**-1
  21:      3112.10 cm**-1
  22:      3135.10 cm**-1
  23:      3135.59 cm**-1

IR SPECTRUM
-----------

 Mode   freq       eps      Int      T**2         TX        TY        TZ
       cm**-1   L/(mol*cm) km/mol    a.u.
----------------------------------------------------------------------------
  6:    160.71   0.000001    0.01  0.000003  ( 0.000029  0.001620  0.000001)
  7:    866.56   0.001039    5.25  0.000374  ( 0.000831 -0.017831  0.007444)
  8:    867.49   0.001058    5.35  0.000381  ( 0.001584  0.007500  0.017937)
  9:   1004.92   0.000000    0.00  0.000000  ( 0.000001  0.000147 -0.000001)
 10:   1201.60   0.000008    0.04  0.000002  (-0.000024  0.000732  0.001287)
 11:   1202.23   0.000024    0.12  0.000006  ( 0.000027 -0.002446  0.000471)
 12:   1386.06   0.000688    3.47  0.000155  ( 0.012402  0.000142 -0.000979)
 13:   1407.73   0.000000    0.00  0.000000  ( 0.000048 -0.000133  0.000007)
 14:   1492.20   0.000164    0.83  0.000034  ( 0.000342  0.001947  0.005508)
 15:   1492.68   0.000292    1.48  0.000061  (-0.000139  0.007704 -0.001327)
 16:   1499.09   0.001880    9.50  0.000391  ( 0.000759 -0.018597  0.006708)
 17:   1499.38   0.001961    9.91  0.000408  ( 0.001706  0.006530  0.019039)
 18:   3044.23   0.010609   53.61  0.001087  (-0.032909 -0.000172  0.002108)
 19:   3046.48   0.000028    0.14  0.000003  (-0.001652 -0.000305  0.000171)
 20:   3111.84   0.000002    0.01  0.000000  ( 0.000101  0.000427 -0.000162)
 21:   3112.10   0.000006    0.03  0.000001  ( 0.000100 -0.000728 -0.000171)
 22:   3135.10   0.008768   44.31  0.000873  ( 0.000638  0.028030  0.009309)
 23:   3135.59   0.008912   45.04  0.000887  (-0.002327  0.009189 -0.028233)

--------------------------
THERMOCHEMISTRY AT 298.15K
--------------------------

Temperature         ... 298.15 K
Pressure            ... 1.00 atm
Total Mass          ... 30.07 AMU

Throughout the following assumptions are being made:
  (1) The electronic state is orbitally nondegenerate
  (2) There are no thermally accessible electronically excited states
  (3) Hindered rotations indicated by low frequency modes are not
      treated as such but are treated as vibrations and this may
      cause some error
  (4) All equations used are the standard statistical mechanics
      equations for an ideal gas
  (5) All vibrations are strictly harmonic

freq.     160.71  E(vib)   ...       0.39
freq.     866.56  E(vib)   ...       0.04
freq.     867.49  E(vib)   ...       0.04
freq.    1004.92  E(vib)   ...       0.02
freq.    1201.60  E(vib)   ...       0.01
freq.    1202.23  E(vib)   ...       0.01
freq.    1386.06  E(vib)   ...       0.00
freq.    1407.73  E(vib)   ...       0.00
freq.    1492.20  E(vib)   ...       0.00
freq.    1492.68  E(vib)   ...       0.00
freq.    1499.09  E(vib)   ...       0.00
freq.    1499.38  E(vib)   ...       0.00
freq.    3044.23  E(vib)   ...       0.00
freq.    3046.48  E(vib)   ...       0.00
freq.    3111.84  E(vib)   ...       0.00
freq.    3112.10  E(vib)   ...       0.00
freq.    3135.10  E(vib)   ...       0.00
freq.    3135.59  E(vib)   ...       0.00

------------
INNER ENERGY
------------

The inner energy is: U= E(el) + E(ZPE) + E(vib) + E(rot) + E(trans)
    E(el)   - is the total energy from the electronic structure calculation
              = E(kin-el) + E(nuc-el) + E(el-el) + E(nuc-nuc)
    E(ZPE)  - the the zero temperature vibrational energy from the frequency calculation
    E(vib)  - the the finite temperature correction to E(ZPE) due to population
              of excited vibrational states
    E(rot)  - is the rotational thermal energy
    E(trans)- is the translational thermal energy

Summary of contributions to the inner energy U:
Electronic energy                ...    -79.74787461 Eh
Zero point energy                ...      0.07441858 Eh      46.70 kcal/mol
Thermal vibrational correction   ...      0.00085173 Eh       0.53 kcal/mol
Thermal rotational correction    ...      0.00141627 Eh       0.89 kcal/mol
Thermal translational correction ...      0.00141627 Eh       0.89 kcal/mol
-----------------------------------------------------------------------
Total thermal energy                    -79.66977176 Eh

Summary of corrections to the electronic energy:
(perhaps to be used in another calculation)
Total thermal correction                  0.00368427 Eh       2.31 kcal/mol
Non-thermal (ZPE) correction              0.07441858 Eh      46.70 kcal/mol
-----------------------------------------------------------------------
Total correction                          0.07810285 Eh      49.01 kcal/mol

--------
ENTHALPY
--------

The enthalpy is H = U + kB*T
                kB is Boltzmann's constant
Total free energy                 ...    -79.66977176 Eh
Thermal Enthalpy correction       ...      0.00094421 Eh       0.59 kcal/mol
-----------------------------------------------------------------------
Total Enthalpy                    ...    -79.66882755 Eh

Note: Rotational entropy computed according to Herzberg
Infrared and Raman Spectra, Chapter V,1, Van Nostrand Reinhold, 1945
Point Group:  D3, Symmetry Number:   6
Rotational constants in cm-1:     2.659368     0.665332     0.665326

Vibrational entropy computed according to the QRRHO of S. Grimme
Chem.Eur.J. 2012 18 9955

-------
ENTROPY
-------

The entropy contributions are T*S = T*(S(el)+S(vib)+S(rot)+S(trans))
     S(el)   - electronic entropy
     S(vib)  - vibrational entropy
     S(rot)  - rotational entropy
     S(trans)- translational entropy
The entropies will be listed as multiplied by the temperature to get
units of energy

Electronic entropy                ...      0.00000000 Eh      0.00 kcal/mol
Vibrational entropy               ...      0.00147186 Eh      0.92 kcal/mol
Rotational entropy                ...      0.00774205 Eh      4.86 kcal/mol
Translational entropy             ...      0.01716939 Eh     10.77 kcal/mol
-----------------------------------------------------------------------
Final entropy term                ...      0.02638329 Eh     16.56 kcal/mol

In case the symmetry of your molecule has not been determined correctly
or in case you have a reason to use a different symmetry number we print
out the resulting rotational entropy values for sn=1,12 :
 --------------------------------------------------------
|  sn= 1 | S(rot)=       0.00943379 Eh      5.92 kcal/mol|
|  sn= 2 | S(rot)=       0.00877934 Eh      5.51 kcal/mol|
|  sn= 3 | S(rot)=       0.00839650 Eh      5.27 kcal/mol|
|  sn= 4 | S(rot)=       0.00812488 Eh      5.10 kcal/mol|
|  sn= 5 | S(rot)=       0.00791419 Eh      4.97 kcal/mol|
|  sn= 6 | S(rot)=       0.00774205 Eh      4.86 kcal/mol|
|  sn= 7 | S(rot)=       0.00759650 Eh      4.77 kcal/mol|
|  sn= 8 | S(rot)=       0.00747042 Eh      4.69 kcal/mol|
|  sn= 9 | S(rot)=       0.00735921 Eh      4.62 kcal/mol|
|  sn=10 | S(rot)=       0.00725974 Eh      4.56 kcal/mol|
|  sn=11 | S(rot)=       0.00716975 Eh      4.50 kcal/mol|
|  sn=12 | S(rot)=       0.00708759 Eh      4.45 kcal/mol|
 --------------------------------------------------------

-------------------
GIBBS FREE ENERGY
-------------------

The Gibbs free energy is G = H - T*S

Total enthalpy                    ...    -79.66882755 Eh
Total entropy correction          ...     -0.02638329 Eh    -16.56 kcal/mol
-----------------------------------------------------------------------
Final Gibbs free energy         ...    -79.69521084 Eh

For completeness - the Gibbs free energy minus the electronic energy
G-E(el)                           ...      0.05266377 Eh     33.05 kcal/mol

                             ****ORCA TERMINATED NORMALLY****
TOTAL RUN TIME: 0 days 0 hours 3 minutes 31 seconds 837 msec
