                         Program Version 5.0.3 -  RELEASE  -
|  1> ! PAL5 PBE0 NumFreq
|  2> %method
|  3>         method DFT
|  4>         runtyp Energy
|  5> end
|  6> %basis
|  7>         basis "def2-TZVP"
|  8> end
|  9> %coords
| 10>         CTyp xyz
| 11>         Charge 0
| 12>         Mult 1
| 13>         Units Angs
| 14>         coords
| 15> 	#120
| 16> 	N     -1.011290    0.960957    0.000001
| 17> 	C     -0.437789    0.932598   -1.004636
| 18> 	H     -2.068270    1.013340    0.000003
| 19> 	end
| 20> end
| 21> %eprnmr
| 22>         NMRShielding 1
| 23>         Nuclei = all N {shift}
| 24>         Nuclei = all C {shift}
| 25>         Nuclei = all H {shift}
| 26> endd                         ****END OF INPUT****

CARTESIAN COORDINATES (ANGSTROEM)
---------------------------------
  N     -1.011290    0.960957    0.000001
  C     -0.437789    0.932598   -1.004636
  H     -2.068270    1.013340    0.000003

 Total Charge           Charge          ....    0
 Multiplicity           Mult            ....    1
 Number of Electrons    NEL             ....   14
 Basis Dimension        Dim             ....   68

ORBITAL ENERGIES
----------------

  NO   OCC          E(Eh)            E(eV)
   0   2.0000     -14.421607      -392.4319
   1   2.0000     -10.285329      -279.8780
   2   2.0000      -0.999641       -27.2016
   3   2.0000      -0.626169       -17.0389
   4   2.0000      -0.428674       -11.6648
   5   2.0000      -0.403748       -10.9865
   6   2.0000      -0.339096        -9.2273
   7   0.0000      -0.047787        -1.3003
   8   0.0000       0.019085         0.5193
   9   0.0000       0.046553         1.2668
  10   0.0000       0.172155         4.6846
  11   0.0000       0.215947         5.8762

MULLIKEN ATOMIC CHARGES
-----------------------
   0 N :   -0.126684
   1 C :   -0.173896
   2 H :    0.300580
Sum of atomic charges:    0.0000000

LOEWDIN ATOMIC CHARGES
----------------------
   0 N :    0.000210
   1 C :   -0.223238
   2 H :    0.223029

  Mayer bond orders larger than 0.100000
B(  0-N ,  1-C ) :   2.3553 B(  0-N ,  2-H ) :   0.8267 B(  1-C ,  2-H ) :   0.1056

FINAL SINGLE POINT ENERGY       -93.305878992982

DIPOLE MOMENT
-------------
                                X             Y             Z
Electronic contribution:      0.26970      -0.01337      -0.09028
Nuclear contribution   :     -1.19495       0.05919       0.42134
                        -----------------------------------------
Total Dipole Moment    :     -0.92526       0.04583       0.33106
                        -----------------------------------------
Magnitude (a.u.)       :      0.98377
Magnitude (Debye)      :      2.50054

CHEMICAL SHIELDING SUMMARY (ppm)
--------------------------------

  Nucleus  Element    Isotropic     Anisotropy
  -------  -------  ------------   ------------
      0       N           68.269        342.129
      1       C          -62.305       -314.579
      2       H           23.644         12.585

VIBRATIONAL FREQUENCIES
-----------------------

Scaling factor for frequencies =  1.000000000 (already applied!)

   0:         0.00 cm**-1
   1:         0.00 cm**-1
   2:         0.00 cm**-1
   3:         0.00 cm**-1
   4:         0.00 cm**-1
   5:         0.00 cm**-1
   6:       701.17 cm**-1
   7:      2215.50 cm**-1
   8:      3156.68 cm**-1

IR SPECTRUM
-----------

 Mode   freq       eps      Int      T**2         TX        TY        TZ
       cm**-1   L/(mol*cm) km/mol    a.u.
----------------------------------------------------------------------------
  6:    701.17   0.034969  176.72  0.015564  (-0.041870  0.002065  0.117500)
  7:   2215.50   0.016960   85.71  0.002389  (-0.016587  0.000832  0.045968)
  8:   3156.68   0.040502  204.68  0.004004  (-0.061347  0.003003  0.015216)

--------------------------
THERMOCHEMISTRY AT 298.15K
--------------------------

Temperature         ... 298.15 K
Pressure            ... 1.00 atm
Total Mass          ... 27.03 AMU

Throughout the following assumptions are being made:
  (1) The electronic state is orbitally nondegenerate
  (2) There are no thermally accessible electronically excited states
  (3) Hindered rotations indicated by low frequency modes are not
      treated as such but are treated as vibrations and this may
      cause some error
  (4) All equations used are the standard statistical mechanics
      equations for an ideal gas
  (5) All vibrations are strictly harmonic

freq.     701.17  E(vib)   ...       0.07
freq.    2215.50  E(vib)   ...       0.00
freq.    3156.68  E(vib)   ...       0.00

------------
INNER ENERGY
------------

The inner energy is: U= E(el) + E(ZPE) + E(vib) + E(rot) + E(trans)
    E(el)   - is the total energy from the electronic structure calculation
              = E(kin-el) + E(nuc-el) + E(el-el) + E(nuc-nuc)
    E(ZPE)  - the the zero temperature vibrational energy from the frequency calculation
    E(vib)  - the the finite temperature correction to E(ZPE) due to population
              of excited vibrational states
    E(rot)  - is the rotational thermal energy
    E(trans)- is the translational thermal energy

Summary of contributions to the inner energy U:
Electronic energy                ...    -93.30587899 Eh
Zero point energy                ...      0.01383609 Eh       8.68 kcal/mol
Thermal vibrational correction   ...      0.00011243 Eh       0.07 kcal/mol
Thermal rotational correction    ...      0.00141627 Eh       0.89 kcal/mol
Thermal translational correction ...      0.00141627 Eh       0.89 kcal/mol
-----------------------------------------------------------------------
Total thermal energy                    -93.28909793 Eh

Summary of corrections to the electronic energy:
(perhaps to be used in another calculation)
Total thermal correction                  0.00294497 Eh       1.85 kcal/mol
Non-thermal (ZPE) correction              0.01383609 Eh       8.68 kcal/mol
-----------------------------------------------------------------------
Total correction                          0.01678107 Eh      10.53 kcal/mol

--------
ENTHALPY
--------

The enthalpy is H = U + kB*T
                kB is Boltzmann's constant
Total free energy                 ...    -93.28909793 Eh
Thermal Enthalpy correction       ...      0.00094421 Eh       0.59 kcal/mol
-----------------------------------------------------------------------
Total Enthalpy                    ...    -93.28815372 Eh

Note: Rotational entropy computed according to Herzberg
Infrared and Raman Spectra, Chapter V,1, Van Nostrand Reinhold, 1945
Point Group:  Cs, Symmetry Number:   1
Rotational constants in cm-1:    23.401347     1.712118     1.595393

Vibrational entropy computed according to the QRRHO of S. Grimme
Chem.Eur.J. 2012 18 9955

-------
ENTROPY
-------

The entropy contributions are T*S = T*(S(el)+S(vib)+S(rot)+S(trans))
     S(el)   - electronic entropy
     S(vib)  - vibrational entropy
     S(rot)  - rotational entropy
     S(trans)- translational entropy
The entropies will be listed as multiplied by the temperature to get
units of energy

Electronic entropy                ...      0.00000000 Eh      0.00 kcal/mol
Vibrational entropy               ...      0.00014516 Eh      0.09 kcal/mol
Rotational entropy                ...      0.00754803 Eh      4.74 kcal/mol
Translational entropy             ...      0.01701823 Eh     10.68 kcal/mol
-----------------------------------------------------------------------
Final entropy term                ...      0.02471142 Eh     15.51 kcal/mol

In case the symmetry of your molecule has not been determined correctly
or in case you have a reason to use a different symmetry number we print
out the resulting rotational entropy values for sn=1,12 :
 --------------------------------------------------------
|  sn= 1 | S(rot)=       0.00754803 Eh      4.74 kcal/mol|
|  sn= 2 | S(rot)=       0.00689357 Eh      4.33 kcal/mol|
|  sn= 3 | S(rot)=       0.00651074 Eh      4.09 kcal/mol|
|  sn= 4 | S(rot)=       0.00623911 Eh      3.92 kcal/mol|
|  sn= 5 | S(rot)=       0.00602843 Eh      3.78 kcal/mol|
|  sn= 6 | S(rot)=       0.00585628 Eh      3.67 kcal/mol|
|  sn= 7 | S(rot)=       0.00571073 Eh      3.58 kcal/mol|
|  sn= 8 | S(rot)=       0.00558466 Eh      3.50 kcal/mol|
|  sn= 9 | S(rot)=       0.00547345 Eh      3.43 kcal/mol|
|  sn=10 | S(rot)=       0.00537397 Eh      3.37 kcal/mol|
|  sn=11 | S(rot)=       0.00528398 Eh      3.32 kcal/mol|
|  sn=12 | S(rot)=       0.00520182 Eh      3.26 kcal/mol|
 --------------------------------------------------------

-------------------
GIBBS FREE ENERGY
-------------------

The Gibbs free energy is G = H - T*S

Total enthalpy                    ...    -93.28815372 Eh
Total entropy correction          ...     -0.02471142 Eh    -15.51 kcal/mol
-----------------------------------------------------------------------
Final Gibbs free energy         ...    -93.31286514 Eh

For completeness - the Gibbs free energy minus the electronic energy
G-E(el)                           ...     -0.00698614 Eh     -4.38 kcal/mol

                             ****ORCA TERMINATED NORMALLY****
TOTAL RUN TIME: 0 days 0 hours 1 minutes 6 seconds 415 msec
