                         Program Version 4.2.1 -  RELEASE  -
|  1> ! PAL5 PBE
|  2> %method
|  3>         method DFT
|  4>         runtyp OPT
|  5> 	#func VWN
|  6> end
|  7>
|  8> %basis
|  9>         basis "def2-TZVP"
| 10> end
| 11> ! NumFreq
| 12> %output
| 13>         XYZFile true
| 14> end
| 15> %coords
| 16>         CTyp xyz
| 17>         Charge 0
| 18>         Mult 1
| 19>         Units Angs
| 20>         coords
| 21>         S       -1.3964703605      0.5346218729     -0.0392481365
| 22> 	O        0.1725606238      0.5123737189     -0.0821591799
| 23> 	O       -1.9650463708      1.2081038033      1.2597276053
| 24>         end
| 25> endd                         ****END OF INPUT****
 Total Charge           Charge          ....    0
 Multiplicity           Mult            ....    1
 Number of Electrons    NEL             ....   32
FINAL SINGLE POINT ENERGY      -548.379843310871
FINAL SINGLE POINT ENERGY      -548.395883217991
FINAL SINGLE POINT ENERGY      -548.400800533907
FINAL SINGLE POINT ENERGY      -548.401995101382
FINAL SINGLE POINT ENERGY      -548.402034117602
FINAL SINGLE POINT ENERGY      -548.402034495949
                    ***********************HURRAY********************

CARTESIAN COORDINATES (ANGSTROEM)
---------------------------------
  S     -1.347668    0.566394    0.022033
  O      0.104383    0.510736   -0.085317
  O     -1.945671    1.177969    1.201605

 Multiplicity           Mult            ....    1
 Number of Electrons    NEL             ....   32
 Basis Dimension        Dim             ....   99

ORBITAL ENERGIES
----------------

  NO   OCC          E(Eh)            E(eV)
   0   2.0000     -88.211468     -2400.3561
   1   2.0000     -18.807255      -511.7714
   2   2.0000     -18.807139      -511.7683
   3   2.0000      -7.818918      -212.7636
   4   2.0000      -5.840564      -158.9298
   5   2.0000      -5.839180      -158.8922
   6   2.0000      -5.833380      -158.7343
   7   2.0000      -1.047281       -28.4980
   8   2.0000      -0.960491       -26.1363
   9   2.0000      -0.579631       -15.7726
  10   2.0000      -0.445457       -12.1215
  11   2.0000      -0.439698       -11.9648
  12   2.0000      -0.436423       -11.8757
  13   2.0000      -0.338541        -9.2122
  14   2.0000      -0.314381        -8.5547
  15   2.0000      -0.291225        -7.9246
  16   0.0000      -0.163877        -4.4593
  17   0.0000      -0.000664        -0.0181
  18   0.0000       0.025867         0.7039
  19   0.0000       0.198291         5.3958
  20   0.0000       0.199225         5.4212

MULLIKEN ATOMIC CHARGES
-----------------------
   0 S :    0.566782
   1 O :   -0.283226
   2 O :   -0.283556
Sum of atomic charges:    0.0000000

LOEWDIN ATOMIC CHARGES
----------------------
   0 S :    0.501221
   1 O :   -0.250647
   2 O :   -0.250574

  Mayer bond orders larger than 0.100000
B(  0-S ,  1-O ) :   1.9288 B(  0-S ,  2-O ) :   1.9278 B(  1-O ,  2-O ) :   0.1905

FINAL SINGLE POINT ENERGY      -548.402034510842

DIPOLE MOMENT
-------------
                                X             Y             Z
Electronic contribution:     -0.37642      -0.24482      -0.47228
Nuclear contribution   :      0.01250       0.00813       0.01569
                        -----------------------------------------
Total Dipole Moment    :     -0.36393      -0.23668      -0.45659
                        -----------------------------------------
Magnitude (a.u.)       :      0.63003
Magnitude (Debye)      :      1.60140

VIBRATIONAL FREQUENCIES
-----------------------

Scaling factor for frequencies =  1.000000000 (already applied!)

   0:         0.00 cm**-1
   1:         0.00 cm**-1
   2:         0.00 cm**-1
   3:         0.00 cm**-1
   4:         0.00 cm**-1
   5:         0.00 cm**-1
   6:       492.53 cm**-1
   7:      1116.65 cm**-1
   8:      1311.06 cm**-1

IR SPECTRUM
-----------

 Mode    freq (cm**-1)   T**2         TX         TY         TZ
-------------------------------------------------------------------
   6:       492.53   23.155434  (  2.775158   1.811131   3.489088)
   7:      1116.65   23.682323  ( -2.787564  -1.829936  -3.544453)
   8:      1311.06  179.050127  (-10.921859   3.553404   6.865598)

--------------------------
THERMOCHEMISTRY AT 298.15K
--------------------------

Temperature         ... 298.15 K
Pressure            ... 1.00 atm
Total Mass          ... 64.06 AMU

Throughout the following assumptions are being made:
  (1) The electronic state is orbitally nondegenerate
  (2) There are no thermally accessible electronically excited states
  (3) Hindered rotations indicated by low frequency modes are not
      treated as such but are treated as vibrations and this may
      cause some error
  (4) All equations used are the standard statistical mechanics
      equations for an ideal gas
  (5) All vibrations are strictly harmonic

freq.     492.53  E(vib)   ...       0.14
freq.    1116.65  E(vib)   ...       0.01
freq.    1311.06  E(vib)   ...       0.01

------------
INNER ENERGY
------------

The inner energy is: U= E(el) + E(ZPE) + E(vib) + E(rot) + E(trans)
    E(el)   - is the total energy from the electronic structure calculation
              = E(kin-el) + E(nuc-el) + E(el-el) + E(nuc-nuc)
    E(ZPE)  - the the zero temperature vibrational energy from the frequency calculation
    E(vib)  - the the finite temperature correction to E(ZPE) due to population
              of excited vibrational states
    E(rot)  - is the rotational thermal energy
    E(trans)- is the translational thermal energy

Summary of contributions to the inner energy U:
Electronic energy                ...   -548.40203451 Eh
Zero point energy                ...      0.00665281 Eh       4.17 kcal/mol
Thermal vibrational correction   ...      0.00026376 Eh       0.17 kcal/mol
Thermal rotational correction    ...      0.00141627 Eh       0.89 kcal/mol
Thermal translational correction ...      0.00141627 Eh       0.89 kcal/mol
-----------------------------------------------------------------------
Total thermal energy                   -548.39228539 Eh

Summary of corrections to the electronic energy:
(perhaps to be used in another calculation)
Total thermal correction                  0.00309630 Eh       1.94 kcal/mol
Non-thermal (ZPE) correction              0.00665281 Eh       4.17 kcal/mol
-----------------------------------------------------------------------
Total correction                          0.00974911 Eh       6.12 kcal/mol

--------
ENTHALPY
--------

The enthalpy is H = U + kB*T
                kB is Boltzmann's constant
Total free energy                 ...   -548.39228539 Eh
Thermal Enthalpy correction       ...      0.00094421 Eh       0.59 kcal/mol
-----------------------------------------------------------------------
Total Enthalpy                    ...   -548.39134119 Eh

Note: Rotational entropy computed according to Herzberg
Infrared and Raman Spectra, Chapter V,1, Van Nostrand Reinhold, 1945
Point Group:  Cs, Symmetry Number:   1
Rotational constants in cm-1:     1.924315     0.334281     0.284806

Vibrational entropy computed according to the QRRHO of S. Grimme
Chem.Eur.J. 2012 18 9955

-------
ENTROPY
-------

The entropy contributions are T*S = T*(S(el)+S(vib)+S(rot)+S(trans))
     S(el)   - electronic entropy
     S(vib)  - vibrational entropy
     S(rot)  - rotational entropy
     S(trans)- translational entropy
The entropies will be listed as mutliplied by the temperature to get
units of energy

Electronic entropy                ...      0.00000000 Eh      0.00 kcal/mol
Vibrational entropy               ...      0.00036227 Eh      0.23 kcal/mol
Rotational entropy                ...      0.01031202 Eh      6.47 kcal/mol
Translational entropy             ...      0.01824046 Eh     11.45 kcal/mol
-----------------------------------------------------------------------
Final entropy term                ...      0.02891475 Eh     18.14 kcal/mol

In case the symmetry of your molecule has not been determined correctly
or in case you have a reason to use a different symmetry number we print
out the resulting rotational entropy values for sn=1,12 :
 --------------------------------------------------------
|  sn= 1 | S(rot)=       0.01031202 Eh      6.47 kcal/mol|
|  sn= 2 | S(rot)=       0.00965756 Eh      6.06 kcal/mol|
|  sn= 3 | S(rot)=       0.00927473 Eh      5.82 kcal/mol|
|  sn= 4 | S(rot)=       0.00900311 Eh      5.65 kcal/mol|
|  sn= 5 | S(rot)=       0.00879242 Eh      5.52 kcal/mol|
|  sn= 6 | S(rot)=       0.00862027 Eh      5.41 kcal/mol|
|  sn= 7 | S(rot)=       0.00847473 Eh      5.32 kcal/mol|
|  sn= 8 | S(rot)=       0.00834865 Eh      5.24 kcal/mol|
|  sn= 9 | S(rot)=       0.00823744 Eh      5.17 kcal/mol|
|  sn=10 | S(rot)=       0.00813796 Eh      5.11 kcal/mol|
|  sn=11 | S(rot)=       0.00804797 Eh      5.05 kcal/mol|
|  sn=12 | S(rot)=       0.00796582 Eh      5.00 kcal/mol|
 --------------------------------------------------------

-------------------
GIBBS FREE ENERGY
-------------------

The Gibbs free energy is G = H - T*S

Total enthalpy                    ...   -548.39134119 Eh
Total entropy correction          ...     -0.02891475 Eh    -18.14 kcal/mol
-----------------------------------------------------------------------
Final Gibbs free energy         ...   -548.42025594 Eh

For completeness - the Gibbs free energy minus the electronic energy
G-E(el)                           ...     -0.01822143 Eh    -11.43 kcal/mol

                             ****ORCA TERMINATED NORMALLY****
TOTAL RUN TIME: 0 days 0 hours 1 minutes 54 seconds 290 msec
