                         Program Version 4.2.1 -  RELEASE  -
|  1> #end
|  2> %method
|  3> 	method HF
|  4> 	runtyp OPT
|  5> end
|  6> %basis
|  7> 	basis "6-311G**"
|  8> end
|  9> ! NumFreq
| 10> %elprop
| 11> 	Polar 1
| 12> end
| 13> %output
| 14> 	XYZFile true
| 15> 	Print [ P_AtPopMO_L ] 1
| 16> 	Print [ P_OrbPopMO_L ] 1
| 17> end
| 18> %coords
| 19> 	CTyp xyz
| 20> 	Charge 0
| 21> 	Mult 1
| 22> 	Units Angs
| 23> 	coords
| 24> 	N       -6.4382077600      2.3423568560      0.0380982609
| 25> 	H       -5.4208800106      2.3479326254     -0.0199892628
| 26> 	H       -6.7498062077      1.5827316221     -0.5654221700
| 27> 	H       -6.7498091349      3.2028874120     -0.4099561403
| 28> 	end
| 29> end
| 30>
| 31>
| 32>                          ****END OF INPUT****
 Total Charge           Charge          ....    0
 Multiplicity           Mult            ....    1
 Number of Electrons    NEL             ....   10
FINAL SINGLE POINT ENERGY       -56.209570858703
FINAL SINGLE POINT ENERGY       -56.210306282488
FINAL SINGLE POINT ENERGY       -56.210370925543
FINAL SINGLE POINT ENERGY       -56.210396689572
                    ***********************HURRAY********************

CARTESIAN COORDINATES (ANGSTROEM)
---------------------------------
  N     -6.431196    2.344257    0.018301
  H     -5.430779    2.347555   -0.016058
  H     -6.748362    1.588845   -0.556830
  H     -6.748365    3.195251   -0.402683

 Multiplicity           Mult            ....    1
 Number of Electrons    NEL             ....   10
 Basis Dimension        Dim             ....   36

ORBITAL ENERGIES
----------------

  NO   OCC          E(Eh)            E(eV)
   0   2.0000     -15.523881      -422.4263
   1   2.0000      -1.139998       -31.0209
   2   2.0000      -0.627592       -17.0776
   3   2.0000      -0.627572       -17.0771
   4   2.0000      -0.421203       -11.4615
   5   0.0000       0.158066         4.3012
   6   0.0000       0.230932         6.2840
   7   0.0000       0.230934         6.2840
   8   0.0000       0.522896        14.2287
   9   0.0000       0.522915        14.2292

MULLIKEN ATOMIC CHARGES
-----------------------
   0 N :   -0.564547
   1 H :    0.188176
   2 H :    0.188186
   3 H :    0.188186
Sum of atomic charges:    0.0000000

LOEWDIN ATOMIC CHARGES
----------------------
   0 N :   -0.058161
   1 H :    0.019388
   2 H :    0.019387
   3 H :    0.019387

  Mayer bond orders larger than 0.100000
B(  0-N ,  1-H ) :   0.9691 B(  0-N ,  2-H ) :   0.9691 B(  0-N ,  3-H ) :   0.9691

FINAL SINGLE POINT ENERGY       -56.210396918162

DIPOLE MOMENT
-------------
                                X             Y             Z
Electronic contribution:     -0.05598      -0.01511       0.15750
Nuclear contribution   :      0.28235       0.07626      -0.79477
                        -----------------------------------------
Total Dipole Moment    :      0.22637       0.06115      -0.63727
                        -----------------------------------------
Magnitude (a.u.)       :      0.67904
Magnitude (Debye)      :      1.72599

VIBRATIONAL FREQUENCIES
-----------------------

Scaling factor for frequencies =  1.000000000 (already applied!)

   0:         0.00 cm**-1
   1:         0.00 cm**-1
   2:         0.00 cm**-1
   3:         0.00 cm**-1
   4:         0.00 cm**-1
   5:         0.00 cm**-1
   6:      1148.30 cm**-1
   7:      1801.75 cm**-1
   8:      1802.09 cm**-1
   9:      3685.87 cm**-1
  10:      3806.95 cm**-1
  11:      3807.17 cm**-1

IR SPECTRUM
-----------

 Mode    freq (cm**-1)   T**2         TX         TY         TZ
-------------------------------------------------------------------
   6:      1148.30  205.420990  ( -4.785221  -1.294766  13.447908)
   7:      1801.75   21.555753  (  0.169669   4.613009   0.497105)
   8:      1802.09   21.549078  ( -4.372899   0.326926  -1.523137)
   9:      3685.87    0.019628  (  0.040010   0.011851  -0.133741)
  10:      3806.95    0.493527  (  0.659528  -0.075586   0.229863)
  11:      3807.17    0.506220  (  0.050419   0.704711   0.084026)

--------------------------
THERMOCHEMISTRY AT 298.15K
--------------------------

Temperature         ... 298.15 K
Pressure            ... 1.00 atm
Total Mass          ... 17.03 AMU

Throughout the following assumptions are being made:
  (1) The electronic state is orbitally nondegenerate
  (2) There are no thermally accessible electronically excited states
  (3) Hindered rotations indicated by low frequency modes are not
      treated as such but are treated as vibrations and this may
      cause some error
  (4) All equations used are the standard statistical mechanics
      equations for an ideal gas
  (5) All vibrations are strictly harmonic

freq.    1148.30  E(vib)   ...       0.01
freq.    1801.75  E(vib)   ...       0.00
freq.    1802.09  E(vib)   ...       0.00
freq.    3685.87  E(vib)   ...       0.00
freq.    3806.95  E(vib)   ...       0.00
freq.    3807.17  E(vib)   ...       0.00

------------
INNER ENERGY
------------

The inner energy is: U= E(el) + E(ZPE) + E(vib) + E(rot) + E(trans)
    E(el)   - is the total energy from the electronic structure calculation
              = E(kin-el) + E(nuc-el) + E(el-el) + E(nuc-nuc)
    E(ZPE)  - the the zero temperature vibrational energy from the frequency calculation
    E(vib)  - the the finite temperature correction to E(ZPE) due to population
              of excited vibrational states
    E(rot)  - is the rotational thermal energy
    E(trans)- is the translational thermal energy

Summary of contributions to the inner energy U:
Electronic energy                ...    -56.21039692 Eh
Zero point energy                ...      0.03656943 Eh      22.95 kcal/mol
Thermal vibrational correction   ...      0.00002335 Eh       0.01 kcal/mol
Thermal rotational correction    ...      0.00141627 Eh       0.89 kcal/mol
Thermal translational correction ...      0.00141627 Eh       0.89 kcal/mol
-----------------------------------------------------------------------
Total thermal energy                    -56.17097159 Eh

Summary of corrections to the electronic energy:
(perhaps to be used in another calculation)
Total thermal correction                  0.00285589 Eh       1.79 kcal/mol
Non-thermal (ZPE) correction              0.03656943 Eh      22.95 kcal/mol
-----------------------------------------------------------------------
Total correction                          0.03942533 Eh      24.74 kcal/mol

--------
ENTHALPY
--------

The enthalpy is H = U + kB*T
                kB is Boltzmann's constant
Total free energy                 ...    -56.17097159 Eh
Thermal Enthalpy correction       ...      0.00094421 Eh       0.59 kcal/mol
-----------------------------------------------------------------------
Total Enthalpy                    ...    -56.17002738 Eh

Note: Rotational entropy computed according to Herzberg
Infrared and Raman Spectra, Chapter V,1, Van Nostrand Reinhold, 1945
Point Group:  Cs, Symmetry Number:   1
Rotational constants in cm-1:    10.244023    10.243178     6.421961

Vibrational entropy computed according to the QRRHO of S. Grimme
Chem.Eur.J. 2012 18 9955

-------
ENTROPY
-------

The entropy contributions are T*S = T*(S(el)+S(vib)+S(rot)+S(trans))
     S(el)   - electronic entropy
     S(vib)  - vibrational entropy
     S(rot)  - rotational entropy
     S(trans)- translational entropy
The entropies will be listed as mutliplied by the temperature to get
units of energy

Electronic entropy                ...      0.00000000 Eh      0.00 kcal/mol
Vibrational entropy               ...      0.00002739 Eh      0.02 kcal/mol
Rotational entropy                ...      0.00643607 Eh      4.04 kcal/mol
Translational entropy             ...      0.01636425 Eh     10.27 kcal/mol
-----------------------------------------------------------------------
Final entropy term                ...      0.02282771 Eh     14.32 kcal/mol

In case the symmetry of your molecule has not been determined correctly
or in case you have a reason to use a different symmetry number we print
out the resulting rotational entropy values for sn=1,12 :
 --------------------------------------------------------
|  sn= 1 | S(rot)=       0.00643607 Eh      4.04 kcal/mol|
|  sn= 2 | S(rot)=       0.00578161 Eh      3.63 kcal/mol|
|  sn= 3 | S(rot)=       0.00539878 Eh      3.39 kcal/mol|
|  sn= 4 | S(rot)=       0.00512716 Eh      3.22 kcal/mol|
|  sn= 5 | S(rot)=       0.00491647 Eh      3.09 kcal/mol|
|  sn= 6 | S(rot)=       0.00474433 Eh      2.98 kcal/mol|
|  sn= 7 | S(rot)=       0.00459878 Eh      2.89 kcal/mol|
|  sn= 8 | S(rot)=       0.00447270 Eh      2.81 kcal/mol|
|  sn= 9 | S(rot)=       0.00436149 Eh      2.74 kcal/mol|
|  sn=10 | S(rot)=       0.00426201 Eh      2.67 kcal/mol|
|  sn=11 | S(rot)=       0.00417202 Eh      2.62 kcal/mol|
|  sn=12 | S(rot)=       0.00408987 Eh      2.57 kcal/mol|
 --------------------------------------------------------

-------------------
GIBBS FREE ENERGY
-------------------

The Gibbs free energy is G = H - T*S

Total enthalpy                    ...    -56.17002738 Eh
Total entropy correction          ...     -0.02282771 Eh    -14.32 kcal/mol
-----------------------------------------------------------------------
Final Gibbs free energy         ...    -56.19285509 Eh

For completeness - the Gibbs free energy minus the electronic energy
G-E(el)                           ...      0.01754183 Eh     11.01 kcal/mol

                             ****ORCA TERMINATED NORMALLY****
TOTAL RUN TIME: 0 days 0 hours 1 minutes 55 seconds 252 msec
