                         Program Version 5.0.3 -  RELEASE  -
|  1> ! VWN
|  2> %method
|  3>         method DFT
|  4>         runtyp OPT
|  5> end
|  6> %basis
|  7>         basis "def2-SVP"
|  8> end
|  9>
| 10> %cpcm
| 11>        epsilon 80.4
| 12>        refrac 1.33
| 13>        fepstype cosmo
| 14> end
| 15> %scf
| 16>        MaxIter 500
| 17> end
| 18> %geom
| 19>        MaxIter 500
| 20>        Convergence loose
| 21> end
| 22>
| 23> ! NumFreq
| 24> %elprop
| 25>         Polar 1
| 26> end
| 27> %output
| 28>         XYZFile true
| 29> end
| 30>
| 31> %coords
| 32>         CTyp xyz
| 33>         Charge 0
| 34>         Mult 2
| 35>         Units Angs
| 36>         coords
| 37>         O      0.216214   -0.006219    1.965016
| 38> 	O      1.457860    1.465908    0.170578
| 39> 	O      1.461175   -1.657734    0.336658
| 40> 	O     -1.619033   -1.285334   -0.190267
| 41> 	O     -1.795432    1.335463   -0.018287
| 42> 	O     -0.178454   -0.282819   -2.151821
| 43> 	O      2.928865    0.033011    2.655076
| 44> 	Co     1.916410   -0.048912    1.128433
| 45> 	Mn    -0.107478   -0.107705    0.062356
| 46> 	O     -3.398012   -0.438743   -2.179417
| 47> 	Co    -1.827952    0.136125   -1.426456
| 48> 	H     -3.665118    0.296023   -2.786998
| 49> 	H      3.863775   -0.035801    2.336404
| 50>         end
| 51> end
| 52>
| 53>                          ****END OF INPUT****
 Total Charge           Charge          ....    0
 Multiplicity           Mult            ....    2
 Number of Electrons    NEL             ....  145
FINAL SINGLE POINT ENERGY     -4506.838005444856
FINAL SINGLE POINT ENERGY     -4506.878628518988
FINAL SINGLE POINT ENERGY     -4506.921090364417
FINAL SINGLE POINT ENERGY     -4506.971963175738
FINAL SINGLE POINT ENERGY     -4506.998845946158
FINAL SINGLE POINT ENERGY     -4507.013611970033
FINAL SINGLE POINT ENERGY     -4507.020957899413
FINAL SINGLE POINT ENERGY     -4507.027067340076
FINAL SINGLE POINT ENERGY     -4507.031007780845
FINAL SINGLE POINT ENERGY     -4507.034190787514
FINAL SINGLE POINT ENERGY     -4507.039355538998
FINAL SINGLE POINT ENERGY     -4507.039445858584
FINAL SINGLE POINT ENERGY     -4507.039492977759
FINAL SINGLE POINT ENERGY     -4507.039543173272
FINAL SINGLE POINT ENERGY     -4507.039579004844
FINAL SINGLE POINT ENERGY     -4507.039614507014
FINAL SINGLE POINT ENERGY     -4507.039639780817
FINAL SINGLE POINT ENERGY     -4507.039662614372
FINAL SINGLE POINT ENERGY     -4507.039678638269
                    ***********************HURRAY********************

CARTESIAN COORDINATES (ANGSTROEM)
---------------------------------
  O      0.131224    0.149190    1.743056
  O      1.466089    1.045792   -0.021692
  O      1.228300   -1.313688    0.163603
  O     -1.339720   -1.236127   -0.224390
  O     -1.411905    1.173525   -0.094862
  O     -0.236489    0.109315   -1.860032
  O      2.782224   -0.036405    2.594507
  Co     1.765822   -0.075013    1.239235
  Mn    -0.034240   -0.017082   -0.040242
  O     -3.311710   -0.463448   -2.020861
  Co    -1.854362    0.014891   -1.298388
  H     -3.689943    0.141053   -2.708329
  H      3.757530   -0.088741    2.429670

 Multiplicity           Mult            ....    2
 Number of Electrons    NEL             ....  145
 Basis Dimension        Dim             ....  215

ORBITAL ENERGIES
----------------
                 SPIN UP ORBITALS
  NO   OCC          E(Eh)            E(eV)
   0   1.0000    -275.630437     -7500.2855
   1   1.0000    -275.629498     -7500.2599
   2   1.0000    -233.752395     -6360.7260
   3   1.0000     -32.435792      -882.6228
   4   1.0000     -32.435043      -882.6024
   5   1.0000     -28.230929      -768.2026
   6   1.0000     -28.230157      -768.1816
   7   1.0000     -28.219426      -767.8896
   8   1.0000     -28.218590      -767.8669
   9   1.0000     -28.216926      -767.8216
  10   1.0000     -28.216069      -767.7983
  11   1.0000     -26.965302      -733.7632
  12   1.0000     -23.180748      -630.7802
  13   1.0000     -23.179665      -630.7508
  14   1.0000     -23.171262      -630.5221
  15   1.0000     -18.693155      -508.6666
  16   1.0000     -18.693018      -508.6629
  17   1.0000     -18.683666      -508.4084
  18   1.0000     -18.683439      -508.4022
  19   1.0000     -18.683357      -508.4000
  20   1.0000     -18.682894      -508.3874
  21   1.0000     -18.669495      -508.0228
  22   1.0000     -18.669027      -508.0101
  23   1.0000      -3.671313       -99.9015
  24   1.0000      -3.670961       -99.8919
  25   1.0000      -3.119023       -84.8729
  26   1.0000      -2.432623       -66.1950
  27   1.0000      -2.432206       -66.1837
  28   1.0000      -2.401303       -65.3428
  29   1.0000      -2.400849       -65.3304
  30   1.0000      -2.398376       -65.2631
  31   1.0000      -2.398028       -65.2537
  32   1.0000      -2.037833       -55.4523
  33   1.0000      -2.036523       -55.4166
  34   1.0000      -2.034734       -55.3679
  35   1.0000      -0.927497       -25.2385
  36   1.0000      -0.915031       -24.8993
  37   1.0000      -0.907117       -24.6839
  38   1.0000      -0.889002       -24.1910
  39   1.0000      -0.878567       -23.9070
  40   1.0000      -0.875596       -23.8262
  41   1.0000      -0.867492       -23.6056
  42   1.0000      -0.864552       -23.5257
  43   1.0000      -0.505545       -13.7566
  44   1.0000      -0.499549       -13.5934
  45   1.0000      -0.470390       -12.8000
  46   1.0000      -0.450632       -12.2623
  47   1.0000      -0.448932       -12.2161
  48   1.0000      -0.439118       -11.9490
  49   1.0000      -0.437757       -11.9120
  50   1.0000      -0.433955       -11.8085
  51   1.0000      -0.432764       -11.7761
  52   1.0000      -0.427490       -11.6326
  53   1.0000      -0.422671       -11.5015
  54   1.0000      -0.406459       -11.0603
  55   1.0000      -0.399561       -10.8726
  56   1.0000      -0.392539       -10.6815
  57   1.0000      -0.385754       -10.4969
  58   1.0000      -0.379194       -10.3184
  59   1.0000      -0.366612        -9.9760
  60   1.0000      -0.351243        -9.5578
  61   1.0000      -0.342037        -9.3073
  62   1.0000      -0.339191        -9.2299
  63   1.0000      -0.318038        -8.6543
  64   1.0000      -0.316037        -8.5998
  65   1.0000      -0.291265        -7.9257
  66   1.0000      -0.289909        -7.8888
  67   1.0000      -0.285525        -7.7695
  68   1.0000      -0.284060        -7.7297
  69   1.0000      -0.274113        -7.4590
  70   1.0000      -0.266543        -7.2530
  71   1.0000      -0.265699        -7.2300
  72   1.0000      -0.241541        -6.5727
  73   0.0000      -0.225602        -6.1390
  74   0.0000      -0.225315        -6.1311
  75   0.0000      -0.219214        -5.9651
  76   0.0000      -0.212275        -5.7763
  77   0.0000      -0.205231        -5.5846

                 SPIN DOWN ORBITALS
  NO   OCC          E(Eh)            E(eV)
   0   1.0000    -275.630263     -7500.2808
   1   1.0000    -275.629307     -7500.2547
   2   1.0000    -233.752411     -6360.7265
   3   1.0000     -32.429421      -882.4494
   4   1.0000     -32.428017      -882.4112
   5   1.0000     -28.224336      -768.0232
   6   1.0000     -28.223056      -767.9884
   7   1.0000     -28.215236      -767.7756
   8   1.0000     -28.213885      -767.7388
   9   1.0000     -28.213000      -767.7148
  10   1.0000     -28.211654      -767.6781
  11   1.0000     -26.966389      -733.7927
  12   1.0000     -23.181255      -630.7940
  13   1.0000     -23.179735      -630.7526
  14   1.0000     -23.173196      -630.5747
  15   1.0000     -18.692440      -508.6472
  16   1.0000     -18.692278      -508.6428
  17   1.0000     -18.682365      -508.3730
  18   1.0000     -18.682054      -508.3645
  19   1.0000     -18.681782      -508.3571
  20   1.0000     -18.681172      -508.3405
  21   1.0000     -18.666593      -507.9438
  22   1.0000     -18.665993      -507.9275
  23   1.0000      -3.659128       -99.5699
  24   1.0000      -3.657522       -99.5262
  25   1.0000      -3.121430       -84.9384
  26   1.0000      -2.416110       -65.7457
  27   1.0000      -2.414467       -65.7010
  28   1.0000      -2.391556       -65.0776
  29   1.0000      -2.389936       -65.0335
  30   1.0000      -2.389374       -65.0182
  31   1.0000      -2.387849       -64.9767
  32   1.0000      -2.043977       -55.6194
  33   1.0000      -2.037151       -55.4337
  34   1.0000      -2.034838       -55.3708
  35   1.0000      -0.924804       -25.1652
  36   1.0000      -0.910184       -24.7674
  37   1.0000      -0.902498       -24.5582
  38   1.0000      -0.886801       -24.1311
  39   1.0000      -0.876364       -23.8471
  40   1.0000      -0.873018       -23.7560
  41   1.0000      -0.865288       -23.5457
  42   1.0000      -0.861643       -23.4465
  43   1.0000      -0.501118       -13.6361
  44   1.0000      -0.495021       -13.4702
  45   1.0000      -0.466353       -12.6901
  46   1.0000      -0.448421       -12.2022
  47   1.0000      -0.443753       -12.0751
  48   1.0000      -0.435693       -11.8558
  49   1.0000      -0.435088       -11.8393
  50   1.0000      -0.430442       -11.7129
  51   1.0000      -0.426781       -11.6133
  52   1.0000      -0.422093       -11.4857
  53   1.0000      -0.418709       -11.3937
  54   1.0000      -0.402568       -10.9544
  55   1.0000      -0.395684       -10.7671
  56   1.0000      -0.388786       -10.5794
  57   1.0000      -0.381836       -10.3903
  58   1.0000      -0.375461       -10.2168
  59   1.0000      -0.358227        -9.7478
  60   1.0000      -0.344332        -9.3697
  61   1.0000      -0.338171        -9.2021
  62   1.0000      -0.335707        -9.1351
  63   1.0000      -0.314754        -8.5649
  64   1.0000      -0.311894        -8.4871
  65   1.0000      -0.286810        -7.8045
  66   1.0000      -0.285413        -7.7665
  67   1.0000      -0.282079        -7.6758
  68   1.0000      -0.279840        -7.6148
  69   1.0000      -0.272190        -7.4067
  70   1.0000      -0.260815        -7.0971
  71   1.0000      -0.259642        -7.0652
  72   0.0000      -0.229507        -6.2452
  73   0.0000      -0.225672        -6.1409
  74   0.0000      -0.219599        -5.9756
  75   0.0000      -0.212385        -5.7793
  76   0.0000      -0.207200        -5.6382

MULLIKEN ATOMIC CHARGES AND SPIN POPULATIONS
--------------------------------------------
   0 O :   -0.253692    0.024418
   1 O :   -0.272086    0.040825
   2 O :   -0.277028    0.054810
   3 O :   -0.253692    0.028993
   4 O :   -0.277661    0.058761
   5 O :   -0.272845    0.043446
   6 O :   -0.351378    0.111538
   7 Co:    0.574306    0.281456
   8 Mn:    0.583097   -0.068519
   9 O :   -0.351300    0.116481
  10 Co:    0.575459    0.311311
  11 H :    0.288138   -0.001731
  12 H :    0.288682   -0.001788
Sum of atomic charges         :   -0.0000000

LOEWDIN ATOMIC CHARGES AND SPIN POPULATIONS
-------------------------------------------
   0 O :   -0.087718    0.024158
   1 O :   -0.121264    0.040298
   2 O :   -0.125087    0.054350
   3 O :   -0.086939    0.028734
   4 O :   -0.126442    0.058337
   5 O :   -0.121425    0.043035
   6 O :   -0.114969    0.108984
   7 Co:    0.262294    0.278698
   8 Mn:    0.075677   -0.061176
   9 O :   -0.115930    0.113920
  10 Co:    0.264308    0.308212
  11 H :    0.148498    0.001298
  12 H :    0.148998    0.001153

  Mayer bond orders larger than 0.100000
B(  0-O ,  5-O ) :   0.1181 B(  0-O ,  7-Co) :   1.0583 B(  0-O ,  8-Mn) :   0.8980
B(  1-O ,  3-O ) :   0.1185 B(  1-O ,  7-Co) :   1.0670 B(  1-O ,  8-Mn) :   0.8480
B(  2-O ,  4-O ) :   0.1191 B(  2-O ,  6-O ) :   0.1061 B(  2-O ,  7-Co) :   1.0263
B(  2-O ,  8-Mn) :   0.8662 B(  3-O ,  8-Mn) :   0.9041 B(  3-O , 10-Co) :   1.0541
B(  4-O ,  8-Mn) :   0.8710 B(  4-O ,  9-O ) :   0.1054 B(  4-O , 10-Co) :   1.0238
B(  5-O ,  8-Mn) :   0.8540 B(  5-O , 10-Co) :   1.0622 B(  6-O ,  7-Co) :   1.0688
B(  6-O ,  8-Mn) :   0.1313 B(  6-O , 12-H ) :   0.8861 B(  7-Co,  8-Mn) :   0.6051
B(  7-Co, 10-Co) :   0.1025 B(  8-Mn,  9-O ) :   0.1268 B(  8-Mn, 10-Co) :   0.5987
B(  9-O , 10-Co) :   1.0710 B(  9-O , 11-H ) :   0.8865

FINAL SINGLE POINT ENERGY     -4507.039685953541

DIPOLE MOMENT
-------------
                                X             Y             Z
Electronic contribution:      0.59620       0.59616      -0.86431
Nuclear contribution   :     -0.08849      -0.13435       0.14216
                        -----------------------------------------
Total Dipole Moment    :      0.50771       0.46180      -0.72215
                        -----------------------------------------
Magnitude (a.u.)       :      0.99626
Magnitude (Debye)      :      2.53229

VIBRATIONAL FREQUENCIES
-----------------------

Scaling factor for frequencies =  1.000000000 (already applied!)

   0:         0.00 cm**-1
   1:         0.00 cm**-1
   2:         0.00 cm**-1
   3:         0.00 cm**-1
   4:         0.00 cm**-1
   5:         0.00 cm**-1
   6:        49.53 cm**-1
   7:        65.29 cm**-1
   8:        73.05 cm**-1
   9:        79.20 cm**-1
  10:       113.44 cm**-1
  11:       162.58 cm**-1
  12:       206.66 cm**-1
  13:       218.70 cm**-1
  14:       229.29 cm**-1
  15:       261.20 cm**-1
  16:       312.89 cm**-1
  17:       323.53 cm**-1
  18:       333.58 cm**-1
  19:       355.69 cm**-1
  20:       366.93 cm**-1
  21:       385.49 cm**-1
  22:       397.98 cm**-1
  23:       425.16 cm**-1
  24:       439.01 cm**-1
  25:       442.68 cm**-1
  26:       495.71 cm**-1
  27:       658.47 cm**-1
  28:       684.19 cm**-1
  29:       693.70 cm**-1
  30:       700.21 cm**-1
  31:       716.92 cm**-1
  32:       720.99 cm**-1
  33:       737.53 cm**-1
  34:       761.09 cm**-1
  35:       818.43 cm**-1
  36:       826.69 cm**-1
  37:      3562.76 cm**-1
  38:      3567.78 cm**-1

IR SPECTRUM
-----------

 Mode   freq       eps      Int      T**2         TX        TY        TZ
       cm**-1   L/(mol*cm) km/mol    a.u.
----------------------------------------------------------------------------
  6:     49.53   0.000886    4.48  0.005584  ( 0.036040  0.037396 -0.053725)
  7:     65.29   0.000447    2.26  0.002134  ( 0.000391 -0.039610 -0.023777)
  8:     73.05   0.000944    4.77  0.004033  (-0.033494  0.009781  0.053065)
  9:     79.20   0.001644    8.31  0.006478  (-0.000563 -0.078685 -0.016926)
 10:    113.44   0.000247    1.25  0.000678  ( 0.012206  0.017068 -0.015426)
 11:    162.58   0.001713    8.66  0.003288  ( 0.035989 -0.044467 -0.004002)
 12:    206.66   0.000249    1.26  0.000376  (-0.013366 -0.010752  0.009031)
 13:    218.70   0.001600    8.09  0.002283  ( 0.043003  0.019877 -0.006234)
 14:    229.29   0.001451    7.33  0.001975  (-0.030503  0.014458 -0.028909)
 15:    261.20   0.014303   72.28  0.017088  ( 0.094891  0.014049  0.088807)
 16:    312.89   0.001318    6.66  0.001314  ( 0.015746  0.019157 -0.026448)
 17:    323.53   0.006114   30.90  0.005898  ( 0.031813  0.044021 -0.054293)
 18:    333.58   0.015435   78.00  0.014439  (-0.105471  0.033000 -0.047179)
 19:    355.69   0.026969  136.29  0.023661  ( 0.030376 -0.139375 -0.057555)
 20:    366.93   0.008135   41.11  0.006918  (-0.038898 -0.023571  0.069640)
 21:    385.49   0.003114   15.74  0.002521  (-0.041550  0.026815 -0.008682)
 22:    397.98   0.003637   18.38  0.002852  (-0.030786 -0.023380  0.036845)
 23:    425.16   0.011155   56.37  0.008188  (-0.023597 -0.062117 -0.061419)
 24:    439.01   0.008565   43.29  0.006089  (-0.039492 -0.033168  0.058557)
 25:    442.68   0.035244  178.11  0.024845  ( 0.025714 -0.137740 -0.072193)
 26:    495.71   0.007810   39.47  0.004917  (-0.033553 -0.032157  0.052504)
 27:    658.47   0.072592  366.85  0.034403  ( 0.090425  0.027859  0.159531)
 28:    684.19   0.020242  102.30  0.009233  ( 0.019398  0.057942 -0.074156)
 29:    693.70   0.013564   68.55  0.006102  ( 0.061578  0.007323  0.047502)
 30:    700.21   0.089596  452.78  0.039930  (-0.182708 -0.057718 -0.056716)
 31:    716.92   0.024011  121.34  0.010452  (-0.085600  0.049176 -0.026574)
 32:    720.99   0.011514   58.19  0.004984  ( 0.036748 -0.023428  0.055537)
 33:    737.53   0.048634  245.78  0.020578  (-0.091357 -0.044022 -0.101458)
 34:    761.09   0.002248   11.36  0.000922  (-0.008715 -0.013507  0.025755)
 35:    818.43   0.002086   10.54  0.000795  ( 0.020692  0.014584 -0.012432)
 36:    826.69   0.013047   65.94  0.004925  ( 0.050991  0.009598  0.047254)
 37:   3562.76   0.474908  2399.99  0.041597  (-0.170318  0.018032 -0.110744)
 38:   3567.78   0.011898   60.13  0.001041  (-0.023748 -0.013175  0.017411)

--------------------------
THERMOCHEMISTRY AT 298.15K
--------------------------

Temperature         ... 298.15 K
Pressure            ... 1.00 atm
Total Mass          ... 302.81 AMU

Throughout the following assumptions are being made:
  (1) The electronic state is orbitally nondegenerate
      but the spin degeneracy is treated
  (2) There are no thermally accessible electronically excited states
  (3) Hindered rotations indicated by low frequency modes are not
      treated as such but are treated as vibrations and this may
      cause some error
  (4) All equations used are the standard statistical mechanics
      equations for an ideal gas
  (5) All vibrations are strictly harmonic

freq.      49.53  E(vib)   ...       0.52
freq.      65.29  E(vib)   ...       0.50
freq.      73.05  E(vib)   ...       0.49
freq.      79.20  E(vib)   ...       0.49
freq.     113.44  E(vib)   ...       0.45
freq.     162.58  E(vib)   ...       0.39
freq.     206.66  E(vib)   ...       0.35
freq.     218.70  E(vib)   ...       0.33
freq.     229.29  E(vib)   ...       0.32
freq.     261.20  E(vib)   ...       0.30
freq.     312.89  E(vib)   ...       0.25
freq.     323.53  E(vib)   ...       0.25
freq.     333.58  E(vib)   ...       0.24
freq.     355.69  E(vib)   ...       0.22
freq.     366.93  E(vib)   ...       0.22
freq.     385.49  E(vib)   ...       0.20
freq.     397.98  E(vib)   ...       0.20
freq.     425.16  E(vib)   ...       0.18
freq.     439.01  E(vib)   ...       0.17
freq.     442.68  E(vib)   ...       0.17
freq.     495.71  E(vib)   ...       0.14
freq.     658.47  E(vib)   ...       0.08
freq.     684.19  E(vib)   ...       0.07
freq.     693.70  E(vib)   ...       0.07
freq.     700.21  E(vib)   ...       0.07
freq.     716.92  E(vib)   ...       0.07
freq.     720.99  E(vib)   ...       0.07
freq.     737.53  E(vib)   ...       0.06
freq.     761.09  E(vib)   ...       0.06
freq.     818.43  E(vib)   ...       0.05
freq.     826.69  E(vib)   ...       0.04
freq.    3562.76  E(vib)   ...       0.00
freq.    3567.78  E(vib)   ...       0.00

------------
INNER ENERGY
------------

The inner energy is: U= E(el) + E(ZPE) + E(vib) + E(rot) + E(trans)
    E(el)   - is the total energy from the electronic structure calculation
              = E(kin-el) + E(nuc-el) + E(el-el) + E(nuc-nuc)
    E(ZPE)  - the the zero temperature vibrational energy from the frequency calculation
    E(vib)  - the the finite temperature correction to E(ZPE) due to population
              of excited vibrational states
    E(rot)  - is the rotational thermal energy
    E(trans)- is the translational thermal energy

Summary of contributions to the inner energy U:
Electronic energy                ...  -4507.03968595 Eh
Zero point energy                ...      0.04598791 Eh      28.86 kcal/mol
Thermal vibrational correction   ...      0.01118911 Eh       7.02 kcal/mol
Thermal rotational correction    ...      0.00141627 Eh       0.89 kcal/mol
Thermal translational correction ...      0.00141627 Eh       0.89 kcal/mol
-----------------------------------------------------------------------
Total thermal energy                  -4506.97967640 Eh

Summary of corrections to the electronic energy:
(perhaps to be used in another calculation)
Total thermal correction                  0.01402165 Eh       8.80 kcal/mol
Non-thermal (ZPE) correction              0.04598791 Eh      28.86 kcal/mol
-----------------------------------------------------------------------
Total correction                          0.06000956 Eh      37.66 kcal/mol

--------
ENTHALPY
--------

The enthalpy is H = U + kB*T
                kB is Boltzmann's constant
Total free energy                 ...  -4506.97967640 Eh
Thermal Enthalpy correction       ...      0.00094421 Eh       0.59 kcal/mol
-----------------------------------------------------------------------
Total Enthalpy                    ...  -4506.97873219 Eh

Note: Only C1 symmetry has been detected, increase convergence thresholds
      if your molecule has a higher symmetry. Symmetry factor of 1.0 is
      used for the rotational entropy correction.

Note: Rotational entropy computed according to Herzberg
Infrared and Raman Spectra, Chapter V,1, Van Nostrand Reinhold, 1945
Point Group:  C1, Symmetry Number:   1
Rotational constants in cm-1:     0.088108     0.012839     0.012813

Vibrational entropy computed according to the QRRHO of S. Grimme
Chem.Eur.J. 2012 18 9955

-------
ENTROPY
-------

The entropy contributions are T*S = T*(S(el)+S(vib)+S(rot)+S(trans))
     S(el)   - electronic entropy
     S(vib)  - vibrational entropy
     S(rot)  - rotational entropy
     S(trans)- translational entropy
The entropies will be listed as multiplied by the temperature to get
units of energy

Electronic entropy                ...      0.00065446 Eh      0.41 kcal/mol
Vibrational entropy               ...      0.01946047 Eh     12.21 kcal/mol
Rotational entropy                ...      0.01477071 Eh      9.27 kcal/mol
Translational entropy             ...      0.02044037 Eh     12.83 kcal/mol
-----------------------------------------------------------------------
Final entropy term                ...      0.05532601 Eh     34.72 kcal/mol

In case the symmetry of your molecule has not been determined correctly
or in case you have a reason to use a different symmetry number we print
out the resulting rotational entropy values for sn=1,12 :
 --------------------------------------------------------
|  sn= 1 | S(rot)=       0.01477071 Eh      9.27 kcal/mol|
|  sn= 2 | S(rot)=       0.01411625 Eh      8.86 kcal/mol|
|  sn= 3 | S(rot)=       0.01373342 Eh      8.62 kcal/mol|
|  sn= 4 | S(rot)=       0.01346180 Eh      8.45 kcal/mol|
|  sn= 5 | S(rot)=       0.01325111 Eh      8.32 kcal/mol|
|  sn= 6 | S(rot)=       0.01307896 Eh      8.21 kcal/mol|
|  sn= 7 | S(rot)=       0.01293342 Eh      8.12 kcal/mol|
|  sn= 8 | S(rot)=       0.01280734 Eh      8.04 kcal/mol|
|  sn= 9 | S(rot)=       0.01269613 Eh      7.97 kcal/mol|
|  sn=10 | S(rot)=       0.01259665 Eh      7.90 kcal/mol|
|  sn=11 | S(rot)=       0.01250666 Eh      7.85 kcal/mol|
|  sn=12 | S(rot)=       0.01242451 Eh      7.80 kcal/mol|
 --------------------------------------------------------

-------------------
GIBBS FREE ENERGY
-------------------

The Gibbs free energy is G = H - T*S

Total enthalpy                    ...  -4506.97873219 Eh
Total entropy correction          ...     -0.05532601 Eh    -34.72 kcal/mol
-----------------------------------------------------------------------
Final Gibbs free energy         ...  -4507.03405819 Eh

For completeness - the Gibbs free energy minus the electronic energy
G-E(el)                           ...      0.00562776 Eh      3.53 kcal/mol

                             ****ORCA TERMINATED NORMALLY****
TOTAL RUN TIME: 0 days 7 hours 23 minutes 39 seconds 2 msec
