                         Program Version 4.2.1 -  RELEASE  -
|  1> #end
|  2> %method
|  3> 	method HF
|  4> 	runtyp OPT
|  5> end
|  6> %basis
|  7> 	basis "6-31++G**"
|  8> end
|  9> ! NumFreq
| 10> %elprop
| 11> 	Polar 1
| 12> end
| 13> %output
| 14> 	XYZFile true
| 15> 	Print [ P_AtPopMO_L ] 1
| 16> 	Print [ P_OrbPopMO_L ] 1
| 17> end
| 18> %coords
| 19> 	CTyp xyz
| 20> 	Charge 0
| 21> 	Mult 1
| 22> 	Units Angs
| 23> 	coords
| 24> 	N       -6.4382077600      2.3423568560      0.0380982609
| 25> 	H       -5.4208800106      2.3479326254     -0.0199892628
| 26> 	H       -6.7498062077      1.5827316221     -0.5654221700
| 27> 	H       -6.7498091349      3.2028874120     -0.4099561403
| 28> 	end
| 29> end
| 30>
| 31>
| 32>                          ****END OF INPUT****
 Total Charge           Charge          ....    0
 Multiplicity           Mult            ....    1
 Number of Electrons    NEL             ....   10
FINAL SINGLE POINT ENERGY       -56.199865073554
FINAL SINGLE POINT ENERGY       -56.200774325225
FINAL SINGLE POINT ENERGY       -56.200943143115
FINAL SINGLE POINT ENERGY       -56.201003445279
                    ***********************HURRAY********************

CARTESIAN COORDINATES (ANGSTROEM)
---------------------------------
  N     -6.425813    2.345716    0.003092
  H     -5.425850    2.346843   -0.008631
  H     -6.753519    1.582287   -0.553532
  H     -6.753522    3.201063   -0.398199

 Multiplicity           Mult            ....    1
 Number of Electrons    NEL             ....   10
 Basis Dimension        Dim             ....   36

ORBITAL ENERGIES
----------------

  NO   OCC          E(Eh)            E(eV)
   0   2.0000     -15.546814      -423.0503
   1   2.0000      -1.148013       -31.2390
   2   2.0000      -0.638565       -17.3762
   3   2.0000      -0.638526       -17.3752
   4   2.0000      -0.421772       -11.4770
   5   0.0000       0.043580         1.1859
   6   0.0000       0.074084         2.0159
   7   0.0000       0.074087         2.0160
   8   0.0000       0.194898         5.3034
   9   0.0000       0.251892         6.8543

MULLIKEN ATOMIC CHARGES
-----------------------
   0 N :   -0.844667
   1 H :    0.281547
   2 H :    0.281560
   3 H :    0.281560
Sum of atomic charges:    0.0000000

LOEWDIN ATOMIC CHARGES
----------------------
   0 N :   -0.482251
   1 H :    0.160749
   2 H :    0.160751
   3 H :    0.160751

  Mayer bond orders larger than 0.100000
B(  0-N ,  1-H ) :   0.9161 B(  0-N ,  2-H ) :   0.9161 B(  0-N ,  3-H ) :   0.9161

FINAL SINGLE POINT ENERGY       -56.201003901587

DIPOLE MOMENT
-------------
                                X             Y             Z
Electronic contribution:     -0.03419      -0.00922       0.09606
Nuclear contribution   :      0.26574       0.07176      -0.74785
                        -----------------------------------------
Total Dipole Moment    :      0.23155       0.06254      -0.65179
                        -----------------------------------------
Magnitude (a.u.)       :      0.69452
Magnitude (Debye)      :      1.76533

VIBRATIONAL FREQUENCIES
-----------------------

Scaling factor for frequencies =  1.000000000 (already applied!)

   0:         0.00 cm**-1
   1:         0.00 cm**-1
   2:         0.00 cm**-1
   3:         0.00 cm**-1
   4:         0.00 cm**-1
   5:         0.00 cm**-1
   6:      1087.42 cm**-1
   7:      1801.04 cm**-1
   8:      1801.22 cm**-1
   9:      3714.69 cm**-1
  10:      3860.19 cm**-1
  11:      3860.49 cm**-1

IR SPECTRUM
-----------

 Mode    freq (cm**-1)   T**2         TX         TY         TZ
-------------------------------------------------------------------
   6:      1087.42  263.920821  (  5.422644   1.466619 -15.243516)
   7:      1801.04   31.494005  ( -0.715124  -5.511768  -0.776540)
   8:      1801.22   31.531041  ( -5.245125   0.931853  -1.775204)
   9:      3714.69    0.142832  ( -0.130888  -0.034596   0.352850)
  10:      3860.19    5.767402  ( -2.260544   0.211712  -0.782636)
  11:      3860.49    5.815469  ( -0.128441  -2.392560  -0.273182)

--------------------------
THERMOCHEMISTRY AT 298.15K
--------------------------

Temperature         ... 298.15 K
Pressure            ... 1.00 atm
Total Mass          ... 17.03 AMU

Throughout the following assumptions are being made:
  (1) The electronic state is orbitally nondegenerate
  (2) There are no thermally accessible electronically excited states
  (3) Hindered rotations indicated by low frequency modes are not
      treated as such but are treated as vibrations and this may
      cause some error
  (4) All equations used are the standard statistical mechanics
      equations for an ideal gas
  (5) All vibrations are strictly harmonic

freq.    1087.42  E(vib)   ...       0.02
freq.    1801.04  E(vib)   ...       0.00
freq.    1801.22  E(vib)   ...       0.00
freq.    3714.69  E(vib)   ...       0.00
freq.    3860.19  E(vib)   ...       0.00
freq.    3860.49  E(vib)   ...       0.00

------------
INNER ENERGY
------------

The inner energy is: U= E(el) + E(ZPE) + E(vib) + E(rot) + E(trans)
    E(el)   - is the total energy from the electronic structure calculation
              = E(kin-el) + E(nuc-el) + E(el-el) + E(nuc-nuc)
    E(ZPE)  - the the zero temperature vibrational energy from the frequency calculation
    E(vib)  - the the finite temperature correction to E(ZPE) due to population
              of excited vibrational states
    E(rot)  - is the rotational thermal energy
    E(trans)- is the translational thermal energy

Summary of contributions to the inner energy U:
Electronic energy                ...    -56.20100390 Eh
Zero point energy                ...      0.03673558 Eh      23.05 kcal/mol
Thermal vibrational correction   ...      0.00002896 Eh       0.02 kcal/mol
Thermal rotational correction    ...      0.00141627 Eh       0.89 kcal/mol
Thermal translational correction ...      0.00141627 Eh       0.89 kcal/mol
-----------------------------------------------------------------------
Total thermal energy                    -56.16140681 Eh

Summary of corrections to the electronic energy:
(perhaps to be used in another calculation)
Total thermal correction                  0.00286151 Eh       1.80 kcal/mol
Non-thermal (ZPE) correction              0.03673558 Eh      23.05 kcal/mol
-----------------------------------------------------------------------
Total correction                          0.03959709 Eh      24.85 kcal/mol

--------
ENTHALPY
--------

The enthalpy is H = U + kB*T
                kB is Boltzmann's constant
Total free energy                 ...    -56.16140681 Eh
Thermal Enthalpy correction       ...      0.00094421 Eh       0.59 kcal/mol
-----------------------------------------------------------------------
Total Enthalpy                    ...    -56.16046260 Eh

Note: Rotational entropy computed according to Herzberg
Infrared and Raman Spectra, Chapter V,1, Van Nostrand Reinhold, 1945
Point Group:  Cs, Symmetry Number:   1
Rotational constants in cm-1:    10.357328    10.355626     6.324492

Vibrational entropy computed according to the QRRHO of S. Grimme
Chem.Eur.J. 2012 18 9955

-------
ENTROPY
-------

The entropy contributions are T*S = T*(S(el)+S(vib)+S(rot)+S(trans))
     S(el)   - electronic entropy
     S(vib)  - vibrational entropy
     S(rot)  - rotational entropy
     S(trans)- translational entropy
The entropies will be listed as mutliplied by the temperature to get
units of energy

Electronic entropy                ...      0.00000000 Eh      0.00 kcal/mol
Vibrational entropy               ...      0.00003427 Eh      0.02 kcal/mol
Rotational entropy                ...      0.00643294 Eh      4.04 kcal/mol
Translational entropy             ...      0.01636425 Eh     10.27 kcal/mol
-----------------------------------------------------------------------
Final entropy term                ...      0.02283147 Eh     14.33 kcal/mol

In case the symmetry of your molecule has not been determined correctly
or in case you have a reason to use a different symmetry number we print
out the resulting rotational entropy values for sn=1,12 :
 --------------------------------------------------------
|  sn= 1 | S(rot)=       0.00643294 Eh      4.04 kcal/mol|
|  sn= 2 | S(rot)=       0.00577849 Eh      3.63 kcal/mol|
|  sn= 3 | S(rot)=       0.00539565 Eh      3.39 kcal/mol|
|  sn= 4 | S(rot)=       0.00512403 Eh      3.22 kcal/mol|
|  sn= 5 | S(rot)=       0.00491334 Eh      3.08 kcal/mol|
|  sn= 6 | S(rot)=       0.00474120 Eh      2.98 kcal/mol|
|  sn= 7 | S(rot)=       0.00459565 Eh      2.88 kcal/mol|
|  sn= 8 | S(rot)=       0.00446957 Eh      2.80 kcal/mol|
|  sn= 9 | S(rot)=       0.00435837 Eh      2.73 kcal/mol|
|  sn=10 | S(rot)=       0.00425889 Eh      2.67 kcal/mol|
|  sn=11 | S(rot)=       0.00416890 Eh      2.62 kcal/mol|
|  sn=12 | S(rot)=       0.00408674 Eh      2.56 kcal/mol|
 --------------------------------------------------------

-------------------
GIBBS FREE ENERGY
-------------------

The Gibbs free energy is G = H - T*S

Total enthalpy                    ...    -56.16046260 Eh
Total entropy correction          ...     -0.02283147 Eh    -14.33 kcal/mol
-----------------------------------------------------------------------
Final Gibbs free energy         ...    -56.18329407 Eh

For completeness - the Gibbs free energy minus the electronic energy
G-E(el)                           ...      0.01770983 Eh     11.11 kcal/mol

                             ****ORCA TERMINATED NORMALLY****
TOTAL RUN TIME: 0 days 0 hours 1 minutes 52 seconds 336 msec
