                         Program Version 4.2.1 -  RELEASE  -
|  1> ! VWN
|  2> %method
|  3>         method DFT
|  4>         runtyp OPT
|  5> end
|  6> %basis
|  7>         basis "def2-TZVP"
|  8> end
|  9> ! NumFreq
| 10> %output
| 11>         XYZFile true
| 12> end
| 13> %coords
| 14>         CTyp xyz
| 15>         Charge 0 #Carga total OH -1
| 16>         Mult 1 #Electrines impar 2 par 1 OH 1
| 17>         Units Angs
| 18>         coords
| 19>         S       -1.3964703605      0.5346218729     -0.0392481365
| 20> 	O        0.1725606238      0.5123737189     -0.0821591799
| 21> 	O       -1.9650463708      1.2081038033      1.2597276053
| 22>         end
| 23> end
| 24>
| 25>                          ****END OF INPUT****
 Total Charge           Charge          ....    0
 Multiplicity           Mult            ....    1
 Number of Electrons    NEL             ....   32
FINAL SINGLE POINT ENERGY      -546.279590305394
FINAL SINGLE POINT ENERGY      -546.301169507564
FINAL SINGLE POINT ENERGY      -546.306915273021
FINAL SINGLE POINT ENERGY      -546.309012782518
FINAL SINGLE POINT ENERGY      -546.309090480559
FINAL SINGLE POINT ENERGY      -546.309091533814
                    ***********************HURRAY********************

CARTESIAN COORDINATES (ANGSTROEM)
---------------------------------
  S     -1.345233    0.567976    0.025084
  O      0.091767    0.513655   -0.079689
  O     -1.935491    1.173469    1.192925

 Multiplicity           Mult            ....    1
 Number of Electrons    NEL             ....   32
 Basis Dimension        Dim             ....   99

ORBITAL ENERGIES
----------------

  NO   OCC          E(Eh)            E(eV)
   0   2.0000     -87.874176     -2391.1779
   1   2.0000     -18.668294      -507.9901
   2   2.0000     -18.668175      -507.9869
   3   2.0000      -7.783173      -211.7909
   4   2.0000      -5.838975      -158.8866
   5   2.0000      -5.837682      -158.8514
   6   2.0000      -5.831747      -158.6899
   7   2.0000      -1.056136       -28.7389
   8   2.0000      -0.964686       -26.2504
   9   2.0000      -0.577539       -15.7156
  10   2.0000      -0.458645       -12.4804
  11   2.0000      -0.447723       -12.1832
  12   2.0000      -0.446272       -12.1437
  13   2.0000      -0.350287        -9.5318
  14   2.0000      -0.324455        -8.8289
  15   2.0000      -0.298710        -8.1283
  16   0.0000      -0.168184        -4.5765
  17   0.0000      -0.003444        -0.0937
  18   0.0000       0.021515         0.5854
  19   0.0000       0.191608         5.2139
  20   0.0000       0.192209         5.2303

MULLIKEN ATOMIC CHARGES
-----------------------
   0 S :    0.520990
   1 O :   -0.260190
   2 O :   -0.260800
Sum of atomic charges:   -0.0000000

LOEWDIN ATOMIC CHARGES
----------------------
   0 S :    0.476230
   1 O :   -0.238131
   2 O :   -0.238099

  Mayer bond orders larger than 0.100000
B(  0-S ,  1-O ) :   1.9239 B(  0-S ,  2-O ) :   1.9226 B(  1-O ,  2-O ) :   0.1882

FINAL SINGLE POINT ENERGY      -546.309091536512

DIPOLE MOMENT
-------------
                                X             Y             Z
Electronic contribution:     -0.38071      -0.24766      -0.47774
Nuclear contribution   :      0.01239       0.00806       0.01555
                        -----------------------------------------
Total Dipole Moment    :     -0.36832      -0.23960      -0.46218
                        -----------------------------------------
Magnitude (a.u.)       :      0.63772
Magnitude (Debye)      :      1.62094

VIBRATIONAL FREQUENCIES
-----------------------

Scaling factor for frequencies =  1.000000000 (already applied!)

   0:         0.00 cm**-1
   1:         0.00 cm**-1
   2:         0.00 cm**-1
   3:         0.00 cm**-1
   4:         0.00 cm**-1
   5:         0.00 cm**-1
   6:       501.66 cm**-1
   7:      1159.97 cm**-1
   8:      1360.74 cm**-1

IR SPECTRUM
-----------

 Mode    freq (cm**-1)   T**2         TX         TY         TZ
-------------------------------------------------------------------
   6:       501.66   24.986361  (  2.883618   1.880459   3.624221)
   7:      1159.97   26.182508  ( -2.943836  -1.919064  -3.719346)
   8:      1360.74  188.744447  (-11.209254   3.649948   7.055137)

--------------------------
THERMOCHEMISTRY AT 298.15K
--------------------------

Temperature         ... 298.15 K
Pressure            ... 1.00 atm
Total Mass          ... 64.06 AMU

Throughout the following assumptions are being made:
  (1) The electronic state is orbitally nondegenerate
  (2) There are no thermally accessible electronically excited states
  (3) Hindered rotations indicated by low frequency modes are not
      treated as such but are treated as vibrations and this may
      cause some error
  (4) All equations used are the standard statistical mechanics
      equations for an ideal gas
  (5) All vibrations are strictly harmonic

freq.     501.66  E(vib)   ...       0.14
freq.    1159.97  E(vib)   ...       0.01
freq.    1360.74  E(vib)   ...       0.01

------------
INNER ENERGY
------------

The inner energy is: U= E(el) + E(ZPE) + E(vib) + E(rot) + E(trans)
    E(el)   - is the total energy from the electronic structure calculation
              = E(kin-el) + E(nuc-el) + E(el-el) + E(nuc-nuc)
    E(ZPE)  - the the zero temperature vibrational energy from the frequency calculation
    E(vib)  - the the finite temperature correction to E(ZPE) due to population
              of excited vibrational states
    E(rot)  - is the rotational thermal energy
    E(trans)- is the translational thermal energy

Summary of contributions to the inner energy U:
Electronic energy                ...   -546.30909155 Eh
Zero point energy                ...      0.00688547 Eh       4.32 kcal/mol
Thermal vibrational correction   ...      0.00025129 Eh       0.16 kcal/mol
Thermal rotational correction    ...      0.00141627 Eh       0.89 kcal/mol
Thermal translational correction ...      0.00141627 Eh       0.89 kcal/mol
-----------------------------------------------------------------------
Total thermal energy                   -546.29912224 Eh

Summary of corrections to the electronic energy:
(perhaps to be used in another calculation)
Total thermal correction                  0.00308384 Eh       1.94 kcal/mol
Non-thermal (ZPE) correction              0.00688547 Eh       4.32 kcal/mol
-----------------------------------------------------------------------
Total correction                          0.00996931 Eh       6.26 kcal/mol

--------
ENTHALPY
--------

The enthalpy is H = U + kB*T
                kB is Boltzmann's constant
Total free energy                 ...   -546.29912224 Eh
Thermal Enthalpy correction       ...      0.00094421 Eh       0.59 kcal/mol
-----------------------------------------------------------------------
Total Enthalpy                    ...   -546.29817803 Eh

Note: Rotational entropy computed according to Herzberg
Infrared and Raman Spectra, Chapter V,1, Van Nostrand Reinhold, 1945
Point Group:  Cs, Symmetry Number:   1
Rotational constants in cm-1:     1.957620     0.341841     0.291022

Vibrational entropy computed according to the QRRHO of S. Grimme
Chem.Eur.J. 2012 18 9955

-------
ENTROPY
-------

The entropy contributions are T*S = T*(S(el)+S(vib)+S(rot)+S(trans))
     S(el)   - electronic entropy
     S(vib)  - vibrational entropy
     S(rot)  - rotational entropy
     S(trans)- translational entropy
The entropies will be listed as mutliplied by the temperature to get
units of energy

Electronic entropy                ...      0.00000000 Eh      0.00 kcal/mol
Vibrational entropy               ...      0.00034444 Eh      0.22 kcal/mol
Rotational entropy                ...      0.01028317 Eh      6.45 kcal/mol
Translational entropy             ...      0.01824046 Eh     11.45 kcal/mol
-----------------------------------------------------------------------
Final entropy term                ...      0.02886807 Eh     18.11 kcal/mol

In case the symmetry of your molecule has not been determined correctly
or in case you have a reason to use a different symmetry number we print
out the resulting rotational entropy values for sn=1,12 :
 --------------------------------------------------------
|  sn= 1 | S(rot)=       0.01028317 Eh      6.45 kcal/mol|
|  sn= 2 | S(rot)=       0.00962871 Eh      6.04 kcal/mol|
|  sn= 3 | S(rot)=       0.00924588 Eh      5.80 kcal/mol|
|  sn= 4 | S(rot)=       0.00897426 Eh      5.63 kcal/mol|
|  sn= 5 | S(rot)=       0.00876357 Eh      5.50 kcal/mol|
|  sn= 6 | S(rot)=       0.00859142 Eh      5.39 kcal/mol|
|  sn= 7 | S(rot)=       0.00844588 Eh      5.30 kcal/mol|
|  sn= 8 | S(rot)=       0.00831980 Eh      5.22 kcal/mol|
|  sn= 9 | S(rot)=       0.00820859 Eh      5.15 kcal/mol|
|  sn=10 | S(rot)=       0.00810911 Eh      5.09 kcal/mol|
|  sn=11 | S(rot)=       0.00801912 Eh      5.03 kcal/mol|
|  sn=12 | S(rot)=       0.00793697 Eh      4.98 kcal/mol|
 --------------------------------------------------------

-------------------
GIBBS FREE ENERGY
-------------------

The Gibbs free energy is G = H - T*S

Total enthalpy                    ...   -546.29817803 Eh
Total entropy correction          ...     -0.02886807 Eh    -18.11 kcal/mol
-----------------------------------------------------------------------
Final Gibbs free energy         ...   -546.32704610 Eh

For completeness - the Gibbs free energy minus the electronic energy
G-E(el)                           ...     -0.01795455 Eh    -11.27 kcal/mol

                             ****ORCA TERMINATED NORMALLY****
TOTAL RUN TIME: 0 days 0 hours 2 minutes 2 seconds 529 msec
