                         Program Version 5.0.3 -  RELEASE  -
|  1> ! PAL5 VWN
|  2> %method
|  3>         method DFT
|  4>         runtyp OPT
|  5> end
|  6>
|  7> %cpcm
|  8>        epsilon 80.4
|  9>        refrac 1.33
| 10>        fepstype cosmo
| 11> end
| 12> %scf
| 13>        MaxIter 500
| 14> end
| 15> %geom
| 16>        MaxIter 500
| 17>        Convergence loose
| 18> end
| 19>
| 20> %basis
| 21>         basis "def2-SVP"
| 22> end
| 23> ! NumFreq
| 24> %elprop
| 25>         Polar 1
| 26> end
| 27> %output
| 28>         XYZFile true
| 29> end
| 30> %coords
| 31>         CTyp xyz
| 32>         Charge 0
| 33>         Mult 2
| 34>         Units Angs
| 35>         coords
| 36> 	Ti    -1.671960    2.457770   -0.000000
| 37> 	O     -3.066310    1.598560   -0.000001
| 38> 	O     -0.110402    3.419370    0.000000
| 39> 	H      0.603334    2.732930    0.000000
| 40>         end
| 41> end
| 42>
| 43>                          ****END OF INPUT****
 Total Charge           Charge          ....    0
 Multiplicity           Mult            ....    2
 Number of Electrons    NEL             ....   39
FINAL SINGLE POINT ENERGY      -997.227657272705
FINAL SINGLE POINT ENERGY      -997.230211059677
FINAL SINGLE POINT ENERGY      -997.235994002143
FINAL SINGLE POINT ENERGY      -997.237460959789
FINAL SINGLE POINT ENERGY      -997.240645186692
FINAL SINGLE POINT ENERGY      -997.244843705749
FINAL SINGLE POINT ENERGY      -997.254062823300
FINAL SINGLE POINT ENERGY      -997.268338479790
FINAL SINGLE POINT ENERGY      -997.275665694650
FINAL SINGLE POINT ENERGY      -997.275559836989
FINAL SINGLE POINT ENERGY      -997.273581751288
FINAL SINGLE POINT ENERGY      -997.278620264500
FINAL SINGLE POINT ENERGY      -997.278731807117
FINAL SINGLE POINT ENERGY      -997.278932923067
FINAL SINGLE POINT ENERGY      -997.279757658742
FINAL SINGLE POINT ENERGY      -997.281239107918
FINAL SINGLE POINT ENERGY      -997.282026393205
FINAL SINGLE POINT ENERGY      -997.282173900130
FINAL SINGLE POINT ENERGY      -997.282209987494
                    ***********************HURRAY********************

CARTESIAN COORDINATES (ANGSTROEM)
---------------------------------
  Ti    -2.031088    3.023853    0.000001
  O     -2.372003    1.450426   -0.000001
  O     -0.264704    3.214388   -0.000000
  H      0.422457    2.519963   -0.000000

 Multiplicity           Mult            ....    2
 Number of Electrons    NEL             ....   39
 Basis Dimension        Dim             ....   64

ORBITAL ENERGIES
----------------
                 SPIN UP ORBITALS
  NO   OCC          E(Eh)            E(eV)
   0   1.0000    -177.160523     -4820.7829
   1   1.0000     -19.384849      -527.4886
   2   1.0000     -18.595032      -505.9965
   3   1.0000     -18.567411      -505.2449
   4   1.0000     -16.220182      -441.3736
   5   1.0000     -16.219464      -441.3541
   6   1.0000     -16.215565      -441.2480
   7   1.0000      -2.197549       -59.7984
   8   1.0000      -1.380983       -37.5785
   9   1.0000      -1.373930       -37.3865
  10   1.0000      -1.360947       -37.0332
  11   1.0000      -0.839676       -22.8488
  12   1.0000      -0.735980       -20.0270
  13   1.0000      -0.420060       -11.4304
  14   1.0000      -0.297063        -8.0835
  15   1.0000      -0.282336        -7.6828
  16   1.0000      -0.272523        -7.4157
  17   1.0000      -0.271098        -7.3769
  18   1.0000      -0.257535        -7.0079
  19   1.0000      -0.121906        -3.3172
  20   0.0000      -0.095744        -2.6053
  21   0.0000      -0.082583        -2.2472
  22   0.0000      -0.049503        -1.3471
  23   0.0000      -0.016236        -0.4418
  24   0.0000      -0.006272        -0.1707

                 SPIN DOWN ORBITALS
  NO   OCC          E(Eh)            E(eV)
   0   1.0000    -177.159783     -4820.7628
   1   1.0000     -19.378593      -527.3183
   2   1.0000     -18.595916      -506.0206
   3   1.0000     -18.568857      -505.2843
   4   1.0000     -16.216113      -441.2629
   5   1.0000     -16.212344      -441.1603
   6   1.0000     -16.211665      -441.1418
   7   1.0000      -2.179265       -59.3008
   8   1.0000      -1.368148       -37.2292
   9   1.0000      -1.357035       -36.9268
  10   1.0000      -1.336138       -36.3582
  11   1.0000      -0.840376       -22.8678
  12   1.0000      -0.737099       -20.0575
  13   1.0000      -0.419112       -11.4046
  14   1.0000      -0.295149        -8.0314
  15   1.0000      -0.280944        -7.6449
  16   1.0000      -0.270361        -7.3569
  17   1.0000      -0.269809        -7.3419
  18   1.0000      -0.256329        -6.9751
  19   0.0000      -0.084579        -2.3015
  20   0.0000      -0.077140        -2.0991
  21   0.0000      -0.065399        -1.7796
  22   0.0000      -0.034759        -0.9458
  23   0.0000      -0.005634        -0.1533

MULLIKEN ATOMIC CHARGES AND SPIN POPULATIONS
--------------------------------------------
   0 Ti:    0.641499    1.092914
   1 O :   -0.447478   -0.054855
   2 O :   -0.442223   -0.032802
   3 H :    0.248203   -0.005258
Sum of atomic charges         :    0.0000000

LOEWDIN ATOMIC CHARGES AND SPIN POPULATIONS
-------------------------------------------
   0 Ti:    0.212852    1.059374
   1 O :   -0.196410   -0.040203
   2 O :   -0.136499   -0.019819
   3 H :    0.120057    0.000648

  Mayer bond orders larger than 0.100000
B(  0-Ti,  1-O ) :   2.2920 B(  0-Ti,  2-O ) :   1.2968 B(  2-O ,  3-H ) :   0.9241

FINAL SINGLE POINT ENERGY      -997.282210485088

DIPOLE MOMENT
-------------
                                X             Y             Z
Electronic contribution:     -3.38303       2.61038       0.00001
Nuclear contribution   :      3.15899      -1.24171      -0.00000
                        -----------------------------------------
Total Dipole Moment    :     -0.22404       1.36866       0.00000
                        -----------------------------------------
Magnitude (a.u.)       :      1.38688
Magnitude (Debye)      :      3.52517

VIBRATIONAL FREQUENCIES
-----------------------

Scaling factor for frequencies =  1.000000000 (already applied!)

   0:         0.00 cm**-1
   1:         0.00 cm**-1
   2:         0.00 cm**-1
   3:         0.00 cm**-1
   4:         0.00 cm**-1
   5:         0.00 cm**-1
   6:       245.14 cm**-1
   7:       433.24 cm**-1
   8:       456.73 cm**-1
   9:       765.02 cm**-1
  10:      1047.64 cm**-1
  11:      3740.82 cm**-1

IR SPECTRUM
-----------

 Mode   freq       eps      Int      T**2         TX        TY        TZ
       cm**-1   L/(mol*cm) km/mol    a.u.
----------------------------------------------------------------------------
  6:    245.14   0.009128   46.13  0.011620  ( 0.096368  0.048305  0.000000)
  7:    433.24   0.049212  248.70  0.035448  ( 0.000057  0.000034 -0.188275)
  8:    456.73   0.048018  242.67  0.032809  (-0.156569 -0.091076 -0.000035)
  9:    765.02   0.044406  224.41  0.018114  ( 0.133889 -0.013700  0.000004)
 10:   1047.64   0.065507  331.05  0.019513  ( 0.028533  0.136743  0.000001)
 11:   3740.82   0.085811  433.66  0.007158  (-0.075595  0.037998 -0.000000)

--------------------------
THERMOCHEMISTRY AT 298.15K
--------------------------

Temperature         ... 298.15 K
Pressure            ... 1.00 atm
Total Mass          ... 80.91 AMU

Throughout the following assumptions are being made:
  (1) The electronic state is orbitally nondegenerate
      but the spin degeneracy is treated
  (2) There are no thermally accessible electronically excited states
  (3) Hindered rotations indicated by low frequency modes are not
      treated as such but are treated as vibrations and this may
      cause some error
  (4) All equations used are the standard statistical mechanics
      equations for an ideal gas
  (5) All vibrations are strictly harmonic

freq.     245.14  E(vib)   ...       0.31
freq.     433.24  E(vib)   ...       0.17
freq.     456.73  E(vib)   ...       0.16
freq.     765.02  E(vib)   ...       0.06
freq.    1047.64  E(vib)   ...       0.02
freq.    3740.82  E(vib)   ...       0.00

------------
INNER ENERGY
------------

The inner energy is: U= E(el) + E(ZPE) + E(vib) + E(rot) + E(trans)
    E(el)   - is the total energy from the electronic structure calculation
              = E(kin-el) + E(nuc-el) + E(el-el) + E(nuc-nuc)
    E(ZPE)  - the the zero temperature vibrational energy from the frequency calculation
    E(vib)  - the the finite temperature correction to E(ZPE) due to population
              of excited vibrational states
    E(rot)  - is the rotational thermal energy
    E(trans)- is the translational thermal energy

Summary of contributions to the inner energy U:
Electronic energy                ...   -997.28221049 Eh
Zero point energy                ...      0.01523775 Eh       9.56 kcal/mol
Thermal vibrational correction   ...      0.00114968 Eh       0.72 kcal/mol
Thermal rotational correction    ...      0.00141627 Eh       0.89 kcal/mol
Thermal translational correction ...      0.00141627 Eh       0.89 kcal/mol
-----------------------------------------------------------------------
Total thermal energy                   -997.26299051 Eh

Summary of corrections to the electronic energy:
(perhaps to be used in another calculation)
Total thermal correction                  0.00398223 Eh       2.50 kcal/mol
Non-thermal (ZPE) correction              0.01523775 Eh       9.56 kcal/mol
-----------------------------------------------------------------------
Total correction                          0.01921998 Eh      12.06 kcal/mol

--------
ENTHALPY
--------

The enthalpy is H = U + kB*T
                kB is Boltzmann's constant
Total free energy                 ...   -997.26299051 Eh
Thermal Enthalpy correction       ...      0.00094421 Eh       0.59 kcal/mol
-----------------------------------------------------------------------
Total Enthalpy                    ...   -997.26204630 Eh

Note: Rotational entropy computed according to Herzberg
Infrared and Raman Spectra, Chapter V,1, Van Nostrand Reinhold, 1945
Point Group:  Cs, Symmetry Number:   1
Rotational constants in cm-1:     0.813829     0.266114     0.200540

Vibrational entropy computed according to the QRRHO of S. Grimme
Chem.Eur.J. 2012 18 9955

-------
ENTROPY
-------

The entropy contributions are T*S = T*(S(el)+S(vib)+S(rot)+S(trans))
     S(el)   - electronic entropy
     S(vib)  - vibrational entropy
     S(rot)  - rotational entropy
     S(trans)- translational entropy
The entropies will be listed as multiplied by the temperature to get
units of energy

Electronic entropy                ...      0.00065446 Eh      0.41 kcal/mol
Vibrational entropy               ...      0.00176394 Eh      1.11 kcal/mol
Rotational entropy                ...      0.01099156 Eh      6.90 kcal/mol
Translational entropy             ...      0.01857116 Eh     11.65 kcal/mol
-----------------------------------------------------------------------
Final entropy term                ...      0.03198111 Eh     20.07 kcal/mol

In case the symmetry of your molecule has not been determined correctly
or in case you have a reason to use a different symmetry number we print
out the resulting rotational entropy values for sn=1,12 :
 --------------------------------------------------------
|  sn= 1 | S(rot)=       0.01099156 Eh      6.90 kcal/mol|
|  sn= 2 | S(rot)=       0.01033710 Eh      6.49 kcal/mol|
|  sn= 3 | S(rot)=       0.00995427 Eh      6.25 kcal/mol|
|  sn= 4 | S(rot)=       0.00968265 Eh      6.08 kcal/mol|
|  sn= 5 | S(rot)=       0.00947196 Eh      5.94 kcal/mol|
|  sn= 6 | S(rot)=       0.00929981 Eh      5.84 kcal/mol|
|  sn= 7 | S(rot)=       0.00915427 Eh      5.74 kcal/mol|
|  sn= 8 | S(rot)=       0.00902819 Eh      5.67 kcal/mol|
|  sn= 9 | S(rot)=       0.00891698 Eh      5.60 kcal/mol|
|  sn=10 | S(rot)=       0.00881750 Eh      5.53 kcal/mol|
|  sn=11 | S(rot)=       0.00872751 Eh      5.48 kcal/mol|
|  sn=12 | S(rot)=       0.00864536 Eh      5.43 kcal/mol|
 --------------------------------------------------------

-------------------
GIBBS FREE ENERGY
-------------------

The Gibbs free energy is G = H - T*S

Total enthalpy                    ...   -997.26204630 Eh
Total entropy correction          ...     -0.03198111 Eh    -20.07 kcal/mol
-----------------------------------------------------------------------
Final Gibbs free energy         ...   -997.29402741 Eh

For completeness - the Gibbs free energy minus the electronic energy
G-E(el)                           ...     -0.01181693 Eh     -7.42 kcal/mol

                             ****ORCA TERMINATED NORMALLY****
TOTAL RUN TIME: 0 days 0 hours 37 minutes 3 seconds 168 msec
