                         Program Version 5.0.3 -  RELEASE  -
|  1> ! PBE0 NumFreq
|  2> %method
|  3>         method DFT
|  4>         runtyp Energy
|  5> end
|  6> %basis
|  7>         basis "def2-TZVP"
|  8> end
|  9> %coords
| 10>         CTyp xyz
| 11>         Charge 0
| 12>         Mult 1
| 13>         Units Angs
| 14>         coords
| 15> 	#75
| 16> 	N     -1.011290    0.960957    0.000001
| 17> 	C     -1.306086    0.975537   -1.118876
| 18> 	H     -2.068270    1.013340    0.000003
| 19> 	end
| 20> end
| 21> %eprnmr
| 22>         NMRShielding 1
| 23>         Nuclei = all N {shift}
| 24>         Nuclei = all C {shift}
| 25>         Nuclei = all H {shift}
| 26> end
| 27>
| 28>                          ****END OF INPUT****

CARTESIAN COORDINATES (ANGSTROEM)
---------------------------------
  N     -1.011290    0.960957    0.000001
  C     -1.306086    0.975537   -1.118876
  H     -2.068270    1.013340    0.000003

 Total Charge           Charge          ....    0
 Multiplicity           Mult            ....    1
 Number of Electrons    NEL             ....   14
 Basis Dimension        Dim             ....   68

ORBITAL ENERGIES
----------------

  NO   OCC          E(Eh)            E(eV)
   0   2.0000     -14.433632      -392.7591
   1   2.0000     -10.299596      -280.2663
   2   2.0000      -1.060853       -28.8673
   3   2.0000      -0.561146       -15.2695
   4   2.0000      -0.483549       -13.1580
   5   2.0000      -0.420859       -11.4522
   6   2.0000      -0.352246        -9.5851
   7   0.0000      -0.022225        -0.6048
   8   0.0000       0.013186         0.3588
   9   0.0000       0.039385         1.0717
  10   0.0000       0.173384         4.7180
  11   0.0000       0.205955         5.6043

MULLIKEN ATOMIC CHARGES
-----------------------
   0 N :   -0.065631
   1 C :   -0.202852
   2 H :    0.268483
Sum of atomic charges:    0.0000000

LOEWDIN ATOMIC CHARGES
----------------------
   0 N :    0.014469
   1 C :   -0.246887
   2 H :    0.232419

  Mayer bond orders larger than 0.100000
B(  0-N ,  1-C ) :   2.1131 B(  0-N ,  2-H ) :   0.6798 B(  1-C ,  2-H ) :   0.3112

FINAL SINGLE POINT ENERGY       -93.280197014432

DIPOLE MOMENT
-------------
                                X             Y             Z
Electronic contribution:      0.39030      -0.01934      -0.17481
Nuclear contribution   :     -0.83080       0.04119       0.46925
                        -----------------------------------------
Total Dipole Moment    :     -0.44049       0.02184       0.29445
                        -----------------------------------------
Magnitude (a.u.)       :      0.53029
Magnitude (Debye)      :      1.34789

CHEMICAL SHIELDING SUMMARY (ppm)
--------------------------------

  Nucleus  Element    Isotropic     Anisotropy
  -------  -------  ------------   ------------
      0       N           -0.805        471.634
      1       C          -37.029        424.299
      2       H           32.219         11.416

VIBRATIONAL FREQUENCIES
-----------------------

Scaling factor for frequencies =  1.000000000 (already applied!)

   0:         0.00 cm**-1
   1:         0.00 cm**-1
   2:         0.00 cm**-1
   3:         0.00 cm**-1
   4:         0.00 cm**-1
   5:         0.00 cm**-1
   6:      -224.64 cm**-1 ***imaginary mode***
   7:      2255.74 cm**-1
   8:      3279.14 cm**-1

IR SPECTRUM
-----------

 Mode   freq       eps      Int      T**2         TX        TY        TZ
       cm**-1   L/(mol*cm) km/mol    a.u.
----------------------------------------------------------------------------
  7:   2255.74   0.011220   56.70  0.001552  ( 0.008142 -0.000405 -0.038546)
  8:   3279.14   0.029237  147.75  0.002782  (-0.046381  0.002288  0.025020)

--------------------------
THERMOCHEMISTRY AT 298.15K
--------------------------

Temperature         ... 298.15 K
Pressure            ... 1.00 atm
Total Mass          ... 27.03 AMU

Throughout the following assumptions are being made:
  (1) The electronic state is orbitally nondegenerate
  (2) There are no thermally accessible electronically excited states
  (3) Hindered rotations indicated by low frequency modes are not
      treated as such but are treated as vibrations and this may
      cause some error
  (4) All equations used are the standard statistical mechanics
      equations for an ideal gas
  (5) All vibrations are strictly harmonic

freq.    2255.74  E(vib)   ...       0.00
freq.    3279.14  E(vib)   ...       0.00

------------
INNER ENERGY
------------

The inner energy is: U= E(el) + E(ZPE) + E(vib) + E(rot) + E(trans)
    E(el)   - is the total energy from the electronic structure calculation
              = E(kin-el) + E(nuc-el) + E(el-el) + E(nuc-nuc)
    E(ZPE)  - the the zero temperature vibrational energy from the frequency calculation
    E(vib)  - the the finite temperature correction to E(ZPE) due to population
              of excited vibrational states
    E(rot)  - is the rotational thermal energy
    E(trans)- is the translational thermal energy

Summary of contributions to the inner energy U:
Electronic energy                ...    -93.28019701 Eh
Zero point energy                ...      0.01260938 Eh       7.91 kcal/mol
Thermal vibrational correction   ...      0.00000019 Eh       0.00 kcal/mol
Thermal rotational correction    ...      0.00141627 Eh       0.89 kcal/mol
Thermal translational correction ...      0.00141627 Eh       0.89 kcal/mol
-----------------------------------------------------------------------
Total thermal energy                    -93.26475489 Eh

Summary of corrections to the electronic energy:
(perhaps to be used in another calculation)
Total thermal correction                  0.00283274 Eh       1.78 kcal/mol
Non-thermal (ZPE) correction              0.01260938 Eh       7.91 kcal/mol
-----------------------------------------------------------------------
Total correction                          0.01544212 Eh       9.69 kcal/mol

--------
ENTHALPY
--------

The enthalpy is H = U + kB*T
                kB is Boltzmann's constant
Total free energy                 ...    -93.26475489 Eh
Thermal Enthalpy correction       ...      0.00094421 Eh       0.59 kcal/mol
-----------------------------------------------------------------------
Total Enthalpy                    ...    -93.26381069 Eh

Note: Rotational entropy computed according to Herzberg
Infrared and Raman Spectra, Chapter V,1, Van Nostrand Reinhold, 1945
Point Group:  Cs, Symmetry Number:   1
Rotational constants in cm-1:    16.737527     1.929903     1.730383

Vibrational entropy computed according to the QRRHO of S. Grimme
Chem.Eur.J. 2012 18 9955

-------
ENTROPY
-------

The entropy contributions are T*S = T*(S(el)+S(vib)+S(rot)+S(trans))
     S(el)   - electronic entropy
     S(vib)  - vibrational entropy
     S(rot)  - rotational entropy
     S(trans)- translational entropy
The entropies will be listed as multiplied by the temperature to get
units of energy

Electronic entropy                ...      0.00000000 Eh      0.00 kcal/mol
Vibrational entropy               ...      0.00000021 Eh      0.00 kcal/mol
Rotational entropy                ...      0.00761137 Eh      4.78 kcal/mol
Translational entropy             ...      0.01701823 Eh     10.68 kcal/mol
-----------------------------------------------------------------------
Final entropy term                ...      0.02462982 Eh     15.46 kcal/mol

In case the symmetry of your molecule has not been determined correctly
or in case you have a reason to use a different symmetry number we print
out the resulting rotational entropy values for sn=1,12 :
 --------------------------------------------------------
|  sn= 1 | S(rot)=       0.00761137 Eh      4.78 kcal/mol|
|  sn= 2 | S(rot)=       0.00695691 Eh      4.37 kcal/mol|
|  sn= 3 | S(rot)=       0.00657408 Eh      4.13 kcal/mol|
|  sn= 4 | S(rot)=       0.00630246 Eh      3.95 kcal/mol|
|  sn= 5 | S(rot)=       0.00609177 Eh      3.82 kcal/mol|
|  sn= 6 | S(rot)=       0.00591963 Eh      3.71 kcal/mol|
|  sn= 7 | S(rot)=       0.00577408 Eh      3.62 kcal/mol|
|  sn= 8 | S(rot)=       0.00564800 Eh      3.54 kcal/mol|
|  sn= 9 | S(rot)=       0.00553679 Eh      3.47 kcal/mol|
|  sn=10 | S(rot)=       0.00543731 Eh      3.41 kcal/mol|
|  sn=11 | S(rot)=       0.00534732 Eh      3.36 kcal/mol|
|  sn=12 | S(rot)=       0.00526517 Eh      3.30 kcal/mol|
 --------------------------------------------------------

-------------------
GIBBS FREE ENERGY
-------------------

The Gibbs free energy is G = H - T*S

Total enthalpy                    ...    -93.26381069 Eh
Total entropy correction          ...     -0.02462982 Eh    -15.46 kcal/mol
-----------------------------------------------------------------------
Final Gibbs free energy         ...    -93.28844050 Eh

For completeness - the Gibbs free energy minus the electronic energy
G-E(el)                           ...     -0.00824349 Eh     -5.17 kcal/mol

                             ****ORCA TERMINATED NORMALLY****
TOTAL RUN TIME: 0 days 0 hours 3 minutes 28 seconds 549 msec
