                         Program Version 5.0.3 -  RELEASE  -
|  1> ! PAL5 VWN
|  2> %method
|  3>         method DFT
|  4>         runtyp OPT
|  5> end
|  6>
|  7> %cpcm
|  8>        epsilon 80.4
|  9>        refrac 1.33
| 10>        fepstype cosmo
| 11> end
| 12> %scf
| 13>        MaxIter 500
| 14> end
| 15> %geom
| 16>        MaxIter 500
| 17>        Convergence loose
| 18> end
| 19>
| 20> %basis
| 21>         basis "def2-SVP"
| 22> end
| 23> ! NumFreq
| 24> %elprop
| 25>         Polar 1
| 26> end
| 27> %output
| 28>         XYZFile true
| 29> end
| 30> %coords
| 31>         CTyp xyz
| 32>         Charge 0
| 33>         Mult 1
| 34>         Units Angs
| 35>         coords
| 36> 	Co    -1.671960    2.457770   -0.000000
| 37> 	O     -3.066310    1.598560   -0.000001
| 38> 	O     -0.110402    3.419370    0.000000
| 39> 	H      0.603334    2.732930    0.000000
| 40>         end
| 41> endd                         ****END OF INPUT****
 Total Charge           Charge          ....    0
 Multiplicity           Mult            ....    1
 Number of Electrons    NEL             ....   44
FINAL SINGLE POINT ENERGY     -1529.842570306778
FINAL SINGLE POINT ENERGY     -1529.848459387954
FINAL SINGLE POINT ENERGY     -1529.865456502858
FINAL SINGLE POINT ENERGY     -1529.869321836136
FINAL SINGLE POINT ENERGY     -1529.872104226012
FINAL SINGLE POINT ENERGY     -1529.878132276713
FINAL SINGLE POINT ENERGY     -1529.878472286683
FINAL SINGLE POINT ENERGY     -1529.878496583347
FINAL SINGLE POINT ENERGY     -1529.878552726393
FINAL SINGLE POINT ENERGY     -1529.878572606186
FINAL SINGLE POINT ENERGY     -1529.878612628446
FINAL SINGLE POINT ENERGY     -1529.878669246192
FINAL SINGLE POINT ENERGY     -1529.878735205218
FINAL SINGLE POINT ENERGY     -1529.878769358174
FINAL SINGLE POINT ENERGY     -1529.878775884906
                    ***********************HURRAY********************

CARTESIAN COORDINATES (ANGSTROEM)
---------------------------------
  Co    -1.763572    2.558844   -0.000000
  O     -3.017429    1.650483   -0.000001
  O     -0.220561    3.052239    0.000000
  H      0.756223    2.947064   -0.000000

 Multiplicity           Mult            ....    1
 Number of Electrons    NEL             ....   44
 Basis Dimension        Dim             ....   64

ORBITAL ENERGIES
----------------

  NO   OCC          E(Eh)            E(eV)
   0   2.0000    -275.528037     -7497.4991
   1   2.0000     -32.333183      -879.8306
   2   2.0000     -28.149869      -765.9969
   3   2.0000     -28.106117      -764.8063
   4   2.0000     -28.105243      -764.7825
   5   2.0000     -18.664448      -507.8855
   6   2.0000     -18.646440      -507.3954
   7   2.0000      -3.567745       -97.0833
   8   2.0000      -2.370568       -64.5064
   9   2.0000      -2.275122       -61.9092
  10   2.0000      -2.274252       -61.8855
  11   2.0000      -0.904527       -24.6134
  12   2.0000      -0.824649       -22.4398
  13   2.0000      -0.511500       -13.9186
  14   2.0000      -0.372116       -10.1258
  15   2.0000      -0.369261       -10.0481
  16   2.0000      -0.339544        -9.2395
  17   2.0000      -0.313908        -8.5419
  18   2.0000      -0.312779        -8.5112
  19   2.0000      -0.199405        -5.4261
  20   2.0000      -0.197124        -5.3640
  21   2.0000      -0.196604        -5.3499
  22   0.0000      -0.182407        -4.9635
  23   0.0000      -0.176631        -4.8064
  24   0.0000      -0.012571        -0.3421
  25   0.0000       0.073504         2.0001
  26   0.0000       0.095402         2.5960

MULLIKEN ATOMIC CHARGES
-----------------------
   0 Co:    0.505371
   1 O :   -0.414369
   2 O :   -0.376986
   3 H :    0.285984
Sum of atomic charges:   -0.0000000

LOEWDIN ATOMIC CHARGES
----------------------
   0 Co:    0.155261
   1 O :   -0.225043
   2 O :   -0.077506
   3 H :    0.147289

  Mayer bond orders larger than 0.100000
B(  0-Co,  1-O ) :   2.0328 B(  0-Co,  2-O ) :   1.2540 B(  1-O ,  2-O ) :   0.2363
B(  2-O ,  3-H ) :   0.9084

FINAL SINGLE POINT ENERGY     -1529.878776059700

DIPOLE MOMENT
-------------
                                X             Y             Z
Electronic contribution:     -0.94798       0.39843      -0.00000
Nuclear contribution   :      2.65197       0.11076      -0.00000
                        -----------------------------------------
Total Dipole Moment    :      1.70399       0.50919      -0.00000
                        -----------------------------------------
Magnitude (a.u.)       :      1.77844
Magnitude (Debye)      :      4.52043

VIBRATIONAL FREQUENCIES
-----------------------

Scaling factor for frequencies =  1.000000000 (already applied!)

   0:         0.00 cm**-1
   1:         0.00 cm**-1
   2:         0.00 cm**-1
   3:         0.00 cm**-1
   4:         0.00 cm**-1
   5:         0.00 cm**-1
   6:        96.84 cm**-1
   7:       542.90 cm**-1
   8:       580.96 cm**-1
   9:       837.33 cm**-1
  10:      1069.72 cm**-1
  11:      3669.85 cm**-1

IR SPECTRUM
-----------

 Mode   freq       eps      Int      T**2         TX        TY        TZ
       cm**-1   L/(mol*cm) km/mol    a.u.
----------------------------------------------------------------------------
  6:     96.84   0.004197   21.21  0.013526  ( 0.062368  0.098165  0.000333)
  7:    542.90   0.022875  115.60  0.013148  (-0.001175 -0.000469 -0.114660)
  8:    580.96   0.027645  139.71  0.014849  ( 0.036802  0.116168 -0.000050)
  9:    837.33   0.004810   24.31  0.001793  (-0.041808  0.006692  0.000103)
 10:   1069.72   0.034345  173.57  0.010019  ( 0.081718  0.057806 -0.000109)
 11:   3669.85   0.139226  703.59  0.011839  (-0.108200 -0.011482 -0.000002)

--------------------------
THERMOCHEMISTRY AT 298.15K
--------------------------

Temperature         ... 298.15 K
Pressure            ... 1.00 atm
Total Mass          ... 91.94 AMU

Throughout the following assumptions are being made:
  (1) The electronic state is orbitally nondegenerate
  (2) There are no thermally accessible electronically excited states
  (3) Hindered rotations indicated by low frequency modes are not
      treated as such but are treated as vibrations and this may
      cause some error
  (4) All equations used are the standard statistical mechanics
      equations for an ideal gas
  (5) All vibrations are strictly harmonic

freq.      96.84  E(vib)   ...       0.46
freq.     542.90  E(vib)   ...       0.12
freq.     580.96  E(vib)   ...       0.11
freq.     837.33  E(vib)   ...       0.04
freq.    1069.72  E(vib)   ...       0.02
freq.    3669.85  E(vib)   ...       0.00

------------
INNER ENERGY
------------

The inner energy is: U= E(el) + E(ZPE) + E(vib) + E(rot) + E(trans)
    E(el)   - is the total energy from the electronic structure calculation
              = E(kin-el) + E(nuc-el) + E(el-el) + E(nuc-nuc)
    E(ZPE)  - the the zero temperature vibrational energy from the frequency calculation
    E(vib)  - the the finite temperature correction to E(ZPE) due to population
              of excited vibrational states
    E(rot)  - is the rotational thermal energy
    E(trans)- is the translational thermal energy

Summary of contributions to the inner energy U:
Electronic energy                ...  -1529.87877607 Eh
Zero point energy                ...      0.01548609 Eh       9.72 kcal/mol
Thermal vibrational correction   ...      0.00120213 Eh       0.75 kcal/mol
Thermal rotational correction    ...      0.00141627 Eh       0.89 kcal/mol
Thermal translational correction ...      0.00141627 Eh       0.89 kcal/mol
-----------------------------------------------------------------------
Total thermal energy                  -1529.85925530 Eh

Summary of corrections to the electronic energy:
(perhaps to be used in another calculation)
Total thermal correction                  0.00403467 Eh       2.53 kcal/mol
Non-thermal (ZPE) correction              0.01548609 Eh       9.72 kcal/mol
-----------------------------------------------------------------------
Total correction                          0.01952076 Eh      12.25 kcal/mol

--------
ENTHALPY
--------

The enthalpy is H = U + kB*T
                kB is Boltzmann's constant
Total free energy                 ...  -1529.85925530 Eh
Thermal Enthalpy correction       ...      0.00094421 Eh       0.59 kcal/mol
-----------------------------------------------------------------------
Total Enthalpy                    ...  -1529.85831109 Eh

Note: Rotational entropy computed according to Herzberg
Infrared and Raman Spectra, Chapter V,1, Van Nostrand Reinhold, 1945
Point Group:  Cs, Symmetry Number:   1
Rotational constants in cm-1:     9.705009     0.200275     0.196226

Vibrational entropy computed according to the QRRHO of S. Grimme
Chem.Eur.J. 2012 18 9955

-------
ENTROPY
-------

The entropy contributions are T*S = T*(S(el)+S(vib)+S(rot)+S(trans))
     S(el)   - electronic entropy
     S(vib)  - vibrational entropy
     S(rot)  - rotational entropy
     S(trans)- translational entropy
The entropies will be listed as multiplied by the temperature to get
units of energy

Electronic entropy                ...      0.00000000 Eh      0.00 kcal/mol
Vibrational entropy               ...      0.00212645 Eh      1.33 kcal/mol
Rotational entropy                ...      0.00996586 Eh      6.25 kcal/mol
Translational entropy             ...      0.01875217 Eh     11.77 kcal/mol
-----------------------------------------------------------------------
Final entropy term                ...      0.03084448 Eh     19.36 kcal/mol

In case the symmetry of your molecule has not been determined correctly
or in case you have a reason to use a different symmetry number we print
out the resulting rotational entropy values for sn=1,12 :
 --------------------------------------------------------
|  sn= 1 | S(rot)=       0.00996586 Eh      6.25 kcal/mol|
|  sn= 2 | S(rot)=       0.00931141 Eh      5.84 kcal/mol|
|  sn= 3 | S(rot)=       0.00892857 Eh      5.60 kcal/mol|
|  sn= 4 | S(rot)=       0.00865695 Eh      5.43 kcal/mol|
|  sn= 5 | S(rot)=       0.00844626 Eh      5.30 kcal/mol|
|  sn= 6 | S(rot)=       0.00827412 Eh      5.19 kcal/mol|
|  sn= 7 | S(rot)=       0.00812857 Eh      5.10 kcal/mol|
|  sn= 8 | S(rot)=       0.00800249 Eh      5.02 kcal/mol|
|  sn= 9 | S(rot)=       0.00789129 Eh      4.95 kcal/mol|
|  sn=10 | S(rot)=       0.00779181 Eh      4.89 kcal/mol|
|  sn=11 | S(rot)=       0.00770182 Eh      4.83 kcal/mol|
|  sn=12 | S(rot)=       0.00761966 Eh      4.78 kcal/mol|
 --------------------------------------------------------

-------------------
GIBBS FREE ENERGY
-------------------

The Gibbs free energy is G = H - T*S

Total enthalpy                    ...  -1529.85831109 Eh
Total entropy correction          ...     -0.03084448 Eh    -19.36 kcal/mol
-----------------------------------------------------------------------
Final Gibbs free energy         ...  -1529.88915558 Eh

For completeness - the Gibbs free energy minus the electronic energy
G-E(el)                           ...     -0.01037951 Eh     -6.51 kcal/mol

                             ****ORCA TERMINATED NORMALLY****
TOTAL RUN TIME: 0 days 0 hours 3 minutes 47 seconds 229 msec
