                         Program Version 5.0.3 -  RELEASE  -
|  1> ! PAL5 PBE0 NumFreq
|  2> %method
|  3>         method DFT
|  4>         runtyp Energy
|  5> end
|  6> %basis
|  7>         basis "def2-TZVP"
|  8> end
|  9> %coords
| 10>         CTyp xyz
| 11>         Charge 0
| 12>         Mult 1
| 13>         Units Angs
| 14>         coords
| 15> 	#90
| 16> 	C     -1.011290    0.960957    0.000001
| 17> 	N     -1.007970    0.960795   -1.157147
| 18> 	H     -2.068270    1.013340    0.000003
| 19> 	end
| 20> end
| 21> %eprnmr
| 22>         NMRShielding 1
| 23>         Nuclei = all N {shift}
| 24>         Nuclei = all C {shift}
| 25>         Nuclei = all H {shift}
| 26> endd                         ****END OF INPUT****

CARTESIAN COORDINATES (ANGSTROEM)
---------------------------------
  C     -1.011290    0.960957    0.000001
  N     -1.007970    0.960795   -1.157147
  H     -2.068270    1.013340    0.000003

 Total Charge           Charge          ....    0
 Multiplicity           Mult            ....    1
 Number of Electrons    NEL             ....   14
 Basis Dimension        Dim             ....   68

ORBITAL ENERGIES
----------------

  NO   OCC          E(Eh)            E(eV)
   0   2.0000     -14.445016      -393.0689
   1   2.0000     -10.271241      -279.4947
   2   2.0000      -1.004569       -27.3357
   3   2.0000      -0.578102       -15.7309
   4   2.0000      -0.450615       -12.2619
   5   2.0000      -0.404947       -11.0192
   6   2.0000      -0.367769       -10.0075
   7   0.0000      -0.078168        -2.1271
   8   0.0000       0.010032         0.2730
   9   0.0000       0.080095         2.1795
  10   0.0000       0.151288         4.1167
  11   0.0000       0.204364         5.5610

MULLIKEN ATOMIC CHARGES
-----------------------
   0 C :   -0.261229
   1 N :    0.028385
   2 H :    0.232844
Sum of atomic charges:   -0.0000000

LOEWDIN ATOMIC CHARGES
----------------------
   0 C :   -0.304160
   1 N :    0.114917
   2 H :    0.189243

  Mayer bond orders larger than 0.100000
B(  0-C ,  1-N ) :   2.6294 B(  0-C ,  2-H ) :   0.8019 B(  1-N ,  2-H ) :   0.1719

FINAL SINGLE POINT ENERGY       -93.275939702297

DIPOLE MOMENT
-------------
                                X             Y             Z
Electronic contribution:      0.48484      -0.02403      -0.25158
Nuclear contribution   :     -0.95604       0.04738       0.55958
                        -----------------------------------------
Total Dipole Moment    :     -0.47120       0.02335       0.30800
                        -----------------------------------------
Magnitude (a.u.)       :      0.56342
Magnitude (Debye)      :      1.43210

CHEMICAL SHIELDING SUMMARY (ppm)
--------------------------------

  Nucleus  Element    Isotropic     Anisotropy
  -------  -------  ------------   ------------
      1       N         -262.523       -607.545
      0       C           45.427        322.988
      2       H           24.663          7.243

VIBRATIONAL FREQUENCIES
-----------------------

Scaling factor for frequencies =  1.000000000 (already applied!)

   0:         0.00 cm**-1
   1:         0.00 cm**-1
   2:         0.00 cm**-1
   3:         0.00 cm**-1
   4:         0.00 cm**-1
   5:         0.00 cm**-1
   6:     -1152.04 cm**-1 ***imaginary mode***
   7:      2225.23 cm**-1
   8:      3536.61 cm**-1

IR SPECTRUM
-----------

 Mode   freq       eps      Int      T**2         TX        TY        TZ
       cm**-1   L/(mol*cm) km/mol    a.u.
----------------------------------------------------------------------------
  7:   2225.23   0.000358    1.81  0.000050  (-0.002665  0.000133  0.006564)
  8:   3536.61   0.025692  129.84  0.002267  (-0.045879  0.002296  0.012524)

--------------------------
THERMOCHEMISTRY AT 298.15K
--------------------------

Temperature         ... 298.15 K
Pressure            ... 1.00 atm
Total Mass          ... 27.03 AMU

Throughout the following assumptions are being made:
  (1) The electronic state is orbitally nondegenerate
  (2) There are no thermally accessible electronically excited states
  (3) Hindered rotations indicated by low frequency modes are not
      treated as such but are treated as vibrations and this may
      cause some error
  (4) All equations used are the standard statistical mechanics
      equations for an ideal gas
  (5) All vibrations are strictly harmonic

freq.    2225.23  E(vib)   ...       0.00
freq.    3536.61  E(vib)   ...       0.00

------------
INNER ENERGY
------------

The inner energy is: U= E(el) + E(ZPE) + E(vib) + E(rot) + E(trans)
    E(el)   - is the total energy from the electronic structure calculation
              = E(kin-el) + E(nuc-el) + E(el-el) + E(nuc-nuc)
    E(ZPE)  - the the zero temperature vibrational energy from the frequency calculation
    E(vib)  - the the finite temperature correction to E(ZPE) due to population
              of excited vibrational states
    E(rot)  - is the rotational thermal energy
    E(trans)- is the translational thermal energy

Summary of contributions to the inner energy U:
Electronic energy                ...    -93.27593970 Eh
Zero point energy                ...      0.01312643 Eh       8.24 kcal/mol
Thermal vibrational correction   ...      0.00000022 Eh       0.00 kcal/mol
Thermal rotational correction    ...      0.00141627 Eh       0.89 kcal/mol
Thermal translational correction ...      0.00141627 Eh       0.89 kcal/mol
-----------------------------------------------------------------------
Total thermal energy                    -93.25998051 Eh

Summary of corrections to the electronic energy:
(perhaps to be used in another calculation)
Total thermal correction                  0.00283276 Eh       1.78 kcal/mol
Non-thermal (ZPE) correction              0.01312643 Eh       8.24 kcal/mol
-----------------------------------------------------------------------
Total correction                          0.01595919 Eh      10.01 kcal/mol

--------
ENTHALPY
--------

The enthalpy is H = U + kB*T
                kB is Boltzmann's constant
Total free energy                 ...    -93.25998051 Eh
Thermal Enthalpy correction       ...      0.00094421 Eh       0.59 kcal/mol
-----------------------------------------------------------------------
Total Enthalpy                    ...    -93.25903630 Eh

Note: Rotational entropy computed according to Herzberg
Infrared and Raman Spectra, Chapter V,1, Van Nostrand Reinhold, 1945
Point Group:  Cs, Symmetry Number:   1
Rotational constants in cm-1:    16.285116     1.854484     1.664893

Vibrational entropy computed according to the QRRHO of S. Grimme
Chem.Eur.J. 2012 18 9955

-------
ENTROPY
-------

The entropy contributions are T*S = T*(S(el)+S(vib)+S(rot)+S(trans))
     S(el)   - electronic entropy
     S(vib)  - vibrational entropy
     S(rot)  - rotational entropy
     S(trans)- translational entropy
The entropies will be listed as multiplied by the temperature to get
units of energy

Electronic entropy                ...      0.00000000 Eh      0.00 kcal/mol
Vibrational entropy               ...      0.00000024 Eh      0.00 kcal/mol
Rotational entropy                ...      0.00766134 Eh      4.81 kcal/mol
Translational entropy             ...      0.01701823 Eh     10.68 kcal/mol
-----------------------------------------------------------------------
Final entropy term                ...      0.02467981 Eh     15.49 kcal/mol

In case the symmetry of your molecule has not been determined correctly
or in case you have a reason to use a different symmetry number we print
out the resulting rotational entropy values for sn=1,12 :
 --------------------------------------------------------
|  sn= 1 | S(rot)=       0.00766134 Eh      4.81 kcal/mol|
|  sn= 2 | S(rot)=       0.00700688 Eh      4.40 kcal/mol|
|  sn= 3 | S(rot)=       0.00662405 Eh      4.16 kcal/mol|
|  sn= 4 | S(rot)=       0.00635243 Eh      3.99 kcal/mol|
|  sn= 5 | S(rot)=       0.00614174 Eh      3.85 kcal/mol|
|  sn= 6 | S(rot)=       0.00596959 Eh      3.75 kcal/mol|
|  sn= 7 | S(rot)=       0.00582405 Eh      3.65 kcal/mol|
|  sn= 8 | S(rot)=       0.00569797 Eh      3.58 kcal/mol|
|  sn= 9 | S(rot)=       0.00558676 Eh      3.51 kcal/mol|
|  sn=10 | S(rot)=       0.00548728 Eh      3.44 kcal/mol|
|  sn=11 | S(rot)=       0.00539729 Eh      3.39 kcal/mol|
|  sn=12 | S(rot)=       0.00531514 Eh      3.34 kcal/mol|
 --------------------------------------------------------

-------------------
GIBBS FREE ENERGY
-------------------

The Gibbs free energy is G = H - T*S

Total enthalpy                    ...    -93.25903630 Eh
Total entropy correction          ...     -0.02467981 Eh    -15.49 kcal/mol
-----------------------------------------------------------------------
Final Gibbs free energy         ...    -93.28371611 Eh

For completeness - the Gibbs free energy minus the electronic energy
G-E(el)                           ...     -0.00777641 Eh     -4.88 kcal/mol

                             ****ORCA TERMINATED NORMALLY****
TOTAL RUN TIME: 0 days 0 hours 1 minutes 5 seconds 941 msec
