                         Program Version 5.0.3 -  RELEASE  -
|  1> ! PAL4 VWN
|  2> %method
|  3>         method DFT
|  4>         runtyp OPT
|  5> end
|  6>
|  7> %cpcm
|  8>        epsilon 80.4
|  9>        refrac 1.33
| 10>        fepstype cosmo
| 11> end
| 12> %scf
| 13>        MaxIter 500
| 14> end
| 15> %geom
| 16>        MaxIter 500
| 17>        Convergence loose
| 18> end
| 19>
| 20> %basis
| 21>         basis "def2-SVP"
| 22> end
| 23> ! NumFreq
| 24> %elprop
| 25>         Polar 1
| 26> end
| 27> %output
| 28>         XYZFile true
| 29> end
| 30> %coords
| 31>         CTyp xyz
| 32>         Charge 0
| 33>         Mult 1
| 34>         Units Angs
| 35>         coords
| 36> 	H	0	0	0
| 37> 	O	1	0	0
| 38> 	H	2	0	0
| 39> 	end
| 40> endd                         ****END OF INPUT****
 Total Charge           Charge          ....    0
 Multiplicity           Mult            ....    1
 Number of Electrons    NEL             ....   10
FINAL SINGLE POINT ENERGY       -75.755101971989
FINAL SINGLE POINT ENERGY       -75.759851076645
FINAL SINGLE POINT ENERGY       -75.759894209860
                    ***********************HURRAY********************

CARTESIAN COORDINATES (ANGSTROEM)
---------------------------------
  H      0.050303    0.000000   -0.000000
  O      1.000000   -0.000000    0.000000
  H      1.949697    0.000000   -0.000000

 Multiplicity           Mult            ....    1
 Number of Electrons    NEL             ....   10
 Basis Dimension        Dim             ....   24

ORBITAL ENERGIES
----------------

  NO   OCC          E(Eh)            E(eV)
   0   2.0000     -18.545636      -504.6524
   1   2.0000      -0.840273       -22.8650
   2   2.0000      -0.518124       -14.0989
   3   2.0000      -0.218910        -5.9568
   4   2.0000      -0.218910        -5.9568
   5   0.0000       0.036703         0.9987
   6   0.0000       0.135254         3.6805
   7   0.0000       0.401158        10.9161
   8   0.0000       0.731121        19.8948
   9   0.0000       0.863269        23.4908

MULLIKEN ATOMIC CHARGES
-----------------------
   0 H :    0.238937
   1 O :   -0.477874
   2 H :    0.238937
Sum of atomic charges:    0.0000000

LOEWDIN ATOMIC CHARGES
----------------------
   0 H :    0.104826
   1 O :   -0.209652
   2 H :    0.104826

  Mayer bond orders larger than 0.100000
B(  0-H ,  1-O ) :   0.9200 B(  1-O ,  2-H ) :   0.9200

FINAL SINGLE POINT ENERGY       -75.759895745887

DIPOLE MOMENT
-------------
                                X             Y             Z
Electronic contribution:      0.00000       0.00000      -0.00000
Nuclear contribution   :      0.00000       0.00000      -0.00000
                        -----------------------------------------
Total Dipole Moment    :      0.00000       0.00000      -0.00000
                        -----------------------------------------
Magnitude (a.u.)       :      0.00000
Magnitude (Debye)      :      0.00000

VIBRATIONAL FREQUENCIES
-----------------------

Scaling factor for frequencies =  1.000000000 (already applied!)

   0:         0.00 cm**-1
   1:         0.00 cm**-1
   2:         0.00 cm**-1
   3:         0.00 cm**-1
   4:         0.00 cm**-1
   5:     -1476.30 cm**-1 ***imaginary mode***
   6:     -1476.30 cm**-1 ***imaginary mode***
   7:      3947.71 cm**-1
   8:      4291.31 cm**-1

IR SPECTRUM
-----------

 Mode   freq       eps      Int      T**2         TX        TY        TZ
       cm**-1   L/(mol*cm) km/mol    a.u.
----------------------------------------------------------------------------
  7:   3947.71   0.000000    0.00  0.000000  ( 0.000000  0.000000 -0.000000)
  8:   4291.31   0.160382  810.51  0.011663  (-0.107995  0.000000  0.000000)

--------------------------
THERMOCHEMISTRY AT 298.15K
--------------------------

Temperature         ... 298.15 K
Pressure            ... 1.00 atm
Total Mass          ... 18.02 AMU
The molecule is recognized as being linear

Throughout the following assumptions are being made:
  (1) The electronic state is orbitally nondegenerate
  (2) There are no thermally accessible electronically excited states
  (3) Hindered rotations indicated by low frequency modes are not
      treated as such but are treated as vibrations and this may
      cause some error
  (4) All equations used are the standard statistical mechanics
      equations for an ideal gas
  (5) All vibrations are strictly harmonic

freq.    3947.71  E(vib)   ...       0.00
freq.    4291.31  E(vib)   ...       0.00

------------
INNER ENERGY
------------

The inner energy is: U= E(el) + E(ZPE) + E(vib) + E(rot) + E(trans)
    E(el)   - is the total energy from the electronic structure calculation
              = E(kin-el) + E(nuc-el) + E(el-el) + E(nuc-nuc)
    E(ZPE)  - the the zero temperature vibrational energy from the frequency calculation
    E(vib)  - the the finite temperature correction to E(ZPE) due to population
              of excited vibrational states
    E(rot)  - is the rotational thermal energy
    E(trans)- is the translational thermal energy

Summary of contributions to the inner energy U:
Electronic energy                ...    -75.75989575 Eh
Zero point energy                ...      0.01876987 Eh      11.78 kcal/mol
Thermal vibrational correction   ...      0.00000000 Eh       0.00 kcal/mol
Thermal rotational correction    ...      0.00094418 Eh       0.59 kcal/mol
Thermal translational correction ...      0.00141627 Eh       0.89 kcal/mol
-----------------------------------------------------------------------
Total thermal energy                    -75.73876542 Eh

Summary of corrections to the electronic energy:
(perhaps to be used in another calculation)
Total thermal correction                  0.00236045 Eh       1.48 kcal/mol
Non-thermal (ZPE) correction              0.01876987 Eh      11.78 kcal/mol
-----------------------------------------------------------------------
Total correction                          0.02113032 Eh      13.26 kcal/mol

--------
ENTHALPY
--------

The enthalpy is H = U + kB*T
                kB is Boltzmann's constant
Total free energy                 ...    -75.73876542 Eh
Thermal Enthalpy correction       ...      0.00094421 Eh       0.59 kcal/mol
-----------------------------------------------------------------------
Total Enthalpy                    ...    -75.73782121 Eh

Note: Rotational entropy computed according to Herzberg
Infrared and Raman Spectra, Chapter V,1, Van Nostrand Reinhold, 1945
Point Group:  Dinfh, Symmetry Number:   2
Rotational constants in cm-1:     0.000000     9.271206     9.271206

Vibrational entropy computed according to the QRRHO of S. Grimme
Chem.Eur.J. 2012 18 9955

-------
ENTROPY
-------

The entropy contributions are T*S = T*(S(el)+S(vib)+S(rot)+S(trans))
     S(el)   - electronic entropy
     S(vib)  - vibrational entropy
     S(rot)  - rotational entropy
     S(trans)- translational entropy
The entropies will be listed as multiplied by the temperature to get
units of energy

Electronic entropy                ...      0.00000000 Eh      0.00 kcal/mol
Vibrational entropy               ...     -0.00000000 Eh     -0.00 kcal/mol
Rotational entropy                ...      0.00322320 Eh      2.02 kcal/mol
Translational entropy             ...      0.01644380 Eh     10.32 kcal/mol
-----------------------------------------------------------------------
Final entropy term                ...      0.01966700 Eh     12.34 kcal/mol

-------------------
GIBBS FREE ENERGY
-------------------

The Gibbs free energy is G = H - T*S

Total enthalpy                    ...    -75.73782121 Eh
Total entropy correction          ...     -0.01966700 Eh    -12.34 kcal/mol
-----------------------------------------------------------------------
Final Gibbs free energy         ...    -75.75748821 Eh

For completeness - the Gibbs free energy minus the electronic energy
G-E(el)                           ...      0.00240753 Eh      1.51 kcal/mol

                             ****ORCA TERMINATED NORMALLY****
TOTAL RUN TIME: 0 days 0 hours 1 minutes 3 seconds 906 msec
