                         Program Version 4.2.1 -  RELEASE  -
|  1> ! VWN
|  2> %method
|  3>         method DFT
|  4>         runtyp OPT
|  5> end
|  6> %basis
|  7>         basis "def2-TZVP"
|  8> end
|  9> ! NumFreq
| 10> %output
| 11>         XYZFile true
| 12> end
| 13> %coords
| 14>         CTyp xyz
| 15>         Charge -1
| 16>         Mult 4
| 17>         Units Angs
| 18>         coords
| 19>         S   -1.39647036050000      0.53462187290000     -0.03924813650000
| 20> 	O   0.17256062380000      0.51237371890000     -0.08215917990000
| 21>         O       -1.9650463708      1.2081038033      1.2597276053
| 22>         end
| 23> end
| 24>
| 25>                          ****END OF INPUT****
 Total Charge           Charge          ....   -1
 Multiplicity           Mult            ....    4
 Number of Electrons    NEL             ....   33
FINAL SINGLE POINT ENERGY      -546.110630009341
FINAL SINGLE POINT ENERGY      -546.122297212167   (Wavefunction not fully converged!)
FINAL SINGLE POINT ENERGY      -546.165623681585
FINAL SINGLE POINT ENERGY      -546.166062595510
FINAL SINGLE POINT ENERGY      -546.173564720760
FINAL SINGLE POINT ENERGY      -546.174008109785
FINAL SINGLE POINT ENERGY      -546.174150465746
FINAL SINGLE POINT ENERGY      -546.174167227602
FINAL SINGLE POINT ENERGY      -546.174170930873
                    ***********************HURRAY********************

CARTESIAN COORDINATES (ANGSTROEM)
---------------------------------
  S     -1.570191    0.427437   -0.245981
  O      0.041052    0.638246    0.160616
  O     -1.659817    1.189417    1.223686

 Multiplicity           Mult            ....    4
 Number of Electrons    NEL             ....   33
 Basis Dimension        Dim             ....   99

ORBITAL ENERGIES
----------------
                 SPIN UP ORBITALS
  NO   OCC          E(Eh)            E(eV)
   0   1.0000     -87.546781     -2382.2690
   1   1.0000     -18.397356      -500.6175
   2   1.0000     -18.396602      -500.5970
   3   1.0000      -7.459930      -202.9950
   4   1.0000      -5.513676      -150.0348
   5   1.0000      -5.513091      -150.0188
   6   1.0000      -5.512891      -150.0134
   7   1.0000      -0.716517       -19.4974
   8   1.0000      -0.600920       -16.3519
   9   1.0000      -0.357675        -9.7328
  10   1.0000      -0.171488        -4.6664
  11   1.0000      -0.152481        -4.1492
  12   1.0000      -0.141240        -3.8433
  13   1.0000      -0.081611        -2.2207
  14   1.0000      -0.037785        -1.0282
  15   1.0000      -0.010665        -0.2902
  16   1.0000       0.040068         1.0903
  17   1.0000       0.126588         3.4446
  18   0.0000       0.210233         5.7207
  19   0.0000       0.421411        11.4672
  20   0.0000       0.423965        11.5367
  21   0.0000       0.428145        11.6504
  22   0.0000       0.509941        13.8762

                 SPIN DOWN ORBITALS
  NO   OCC          E(Eh)            E(eV)
   0   1.0000     -87.541145     -2382.1157
   1   1.0000     -18.372509      -499.9414
   2   1.0000     -18.370892      -499.8974
   3   1.0000      -7.453412      -202.8177
   4   1.0000      -5.508498      -149.8939
   5   1.0000      -5.503684      -149.7629
   6   1.0000      -5.503533      -149.7587
   7   1.0000      -0.677317       -18.4307
   8   1.0000      -0.553656       -15.0658
   9   1.0000      -0.316035        -8.5998
  10   1.0000      -0.128043        -3.4842
  11   1.0000      -0.116757        -3.1771
  12   1.0000      -0.107023        -2.9122
  13   1.0000      -0.035048        -0.9537
  14   1.0000       0.002509         0.0683
  15   0.0000       0.053461         1.4548
  16   0.0000       0.085598         2.3292
  17   0.0000       0.176264         4.7964
  18   0.0000       0.238373         6.4865
  19   0.0000       0.443315        12.0632

MULLIKEN ATOMIC CHARGES AND SPIN POPULATIONS
--------------------------------------------
   0 S :   -0.192810    1.432748
   1 O :   -0.404149    0.799226
   2 O :   -0.403042    0.768026
Sum of atomic charges         :   -1.0000000

LOEWDIN ATOMIC CHARGES AND SPIN POPULATIONS
-------------------------------------------
   0 S :   -0.128204    1.351642
   1 O :   -0.438051    0.839382
   2 O :   -0.433746    0.808976

  Mayer bond orders larger than 0.100000
B(  0-S ,  1-O ) :   1.0624 B(  0-S ,  2-O ) :   1.0932 B(  1-O ,  2-O ) :   0.4609

FINAL SINGLE POINT ENERGY      -546.174170950383

DIPOLE MOMENT
-------------
                                X             Y             Z
Electronic contribution:     -0.31177      -0.19855      -0.38169
Nuclear contribution   :      0.02226       0.01423       0.02745
                        -----------------------------------------
Total Dipole Moment    :     -0.28950      -0.18432      -0.35423
                        -----------------------------------------
Magnitude (a.u.)       :      0.49322
Magnitude (Debye)      :      1.25367

VIBRATIONAL FREQUENCIES
-----------------------

Scaling factor for frequencies =  1.000000000 (already applied!)

   0:         0.00 cm**-1
   1:         0.00 cm**-1
   2:         0.00 cm**-1
   3:         0.00 cm**-1
   4:         0.00 cm**-1
   5:         0.00 cm**-1
   6:       -54.27 cm**-1 ***imaginary mode***
   7:       526.91 cm**-1
   8:       756.02 cm**-1

IR SPECTRUM
-----------

 Mode    freq (cm**-1)   T**2         TX         TY         TZ
-------------------------------------------------------------------
   7:       526.91    7.276932  (  1.663239   0.996325   1.875608)
   8:       756.02   62.139789  ( -4.480980  -2.969361  -5.765718)

--------------------------
THERMOCHEMISTRY AT 298.15K
--------------------------

Temperature         ... 298.15 K
Pressure            ... 1.00 atm
Total Mass          ... 64.06 AMU

Throughout the following assumptions are being made:
  (1) The electronic state is orbitally nondegenerate
      but the spin degeneracy is treated
  (2) There are no thermally accessible electronically excited states
  (3) Hindered rotations indicated by low frequency modes are not
      treated as such but are treated as vibrations and this may
      cause some error
  (4) All equations used are the standard statistical mechanics
      equations for an ideal gas
  (5) All vibrations are strictly harmonic

freq.     526.91  E(vib)   ...       0.13
freq.     756.02  E(vib)   ...       0.06

------------
INNER ENERGY
------------

The inner energy is: U= E(el) + E(ZPE) + E(vib) + E(rot) + E(trans)
    E(el)   - is the total energy from the electronic structure calculation
              = E(kin-el) + E(nuc-el) + E(el-el) + E(nuc-nuc)
    E(ZPE)  - the the zero temperature vibrational energy from the frequency calculation
    E(vib)  - the the finite temperature correction to E(ZPE) due to population
              of excited vibrational states
    E(rot)  - is the rotational thermal energy
    E(trans)- is the translational thermal energy

Summary of contributions to the inner energy U:
Electronic energy                ...   -546.17416995 Eh
Zero point energy                ...      0.00292272 Eh       1.83 kcal/mol
Thermal vibrational correction   ...      0.00029706 Eh       0.19 kcal/mol
Thermal rotational correction    ...      0.00141627 Eh       0.89 kcal/mol
Thermal translational correction ...      0.00141627 Eh       0.89 kcal/mol
-----------------------------------------------------------------------
Total thermal energy                   -546.16811763 Eh

Summary of corrections to the electronic energy:
(perhaps to be used in another calculation)
Total thermal correction                  0.00312960 Eh       1.96 kcal/mol
Non-thermal (ZPE) correction              0.00292272 Eh       1.83 kcal/mol
-----------------------------------------------------------------------
Total correction                          0.00605232 Eh       3.80 kcal/mol

--------
ENTHALPY
--------

The enthalpy is H = U + kB*T
                kB is Boltzmann's constant
Total free energy                 ...   -546.16811763 Eh
Thermal Enthalpy correction       ...      0.00094421 Eh       0.59 kcal/mol
-----------------------------------------------------------------------
Total Enthalpy                    ...   -546.16717342 Eh

Note: Rotational entropy computed according to Herzberg
Infrared and Raman Spectra, Chapter V,1, Van Nostrand Reinhold, 1945
Point Group:  Cs, Symmetry Number:   1
Rotational constants in cm-1:     0.621171     0.486838     0.272931

Vibrational entropy computed according to the QRRHO of S. Grimme
Chem.Eur.J. 2012 18 9955

-------
ENTROPY
-------

The entropy contributions are T*S = T*(S(el)+S(vib)+S(rot)+S(trans))
     S(el)   - electronic entropy
     S(vib)  - vibrational entropy
     S(rot)  - rotational entropy
     S(trans)- translational entropy
The entropies will be listed as mutliplied by the temperature to get
units of energy

Electronic entropy                ...      0.00130891 Eh      0.82 kcal/mol
Vibrational entropy               ...      0.00039977 Eh      0.25 kcal/mol
Rotational entropy                ...      0.01068845 Eh      6.71 kcal/mol
Translational entropy             ...      0.01824046 Eh     11.45 kcal/mol
-----------------------------------------------------------------------
Final entropy term                ...      0.03063759 Eh     19.23 kcal/mol

In case the symmetry of your molecule has not been determined correctly
or in case you have a reason to use a different symmetry number we print
out the resulting rotational entropy values for sn=1,12 :
 --------------------------------------------------------
|  sn= 1 | S(rot)=       0.01068845 Eh      6.71 kcal/mol|
|  sn= 2 | S(rot)=       0.01003399 Eh      6.30 kcal/mol|
|  sn= 3 | S(rot)=       0.00965116 Eh      6.06 kcal/mol|
|  sn= 4 | S(rot)=       0.00937953 Eh      5.89 kcal/mol|
|  sn= 5 | S(rot)=       0.00916884 Eh      5.75 kcal/mol|
|  sn= 6 | S(rot)=       0.00899670 Eh      5.65 kcal/mol|
|  sn= 7 | S(rot)=       0.00885115 Eh      5.55 kcal/mol|
|  sn= 8 | S(rot)=       0.00872508 Eh      5.48 kcal/mol|
|  sn= 9 | S(rot)=       0.00861387 Eh      5.41 kcal/mol|
|  sn=10 | S(rot)=       0.00851439 Eh      5.34 kcal/mol|
|  sn=11 | S(rot)=       0.00842440 Eh      5.29 kcal/mol|
|  sn=12 | S(rot)=       0.00834224 Eh      5.23 kcal/mol|
 --------------------------------------------------------

-------------------
GIBBS FREE ENERGY
-------------------

The Gibbs free energy is G = H - T*S

Total enthalpy                    ...   -546.16717342 Eh
Total entropy correction          ...     -0.03063759 Eh    -19.23 kcal/mol
-----------------------------------------------------------------------
Final Gibbs free energy         ...   -546.19781101 Eh

For completeness - the Gibbs free energy minus the electronic energy
G-E(el)                           ...     -0.02364106 Eh    -14.83 kcal/mol

                             ****ORCA TERMINATED NORMALLY****
TOTAL RUN TIME: 0 days 0 hours 3 minutes 12 seconds 986 msec
