                         Program Version 4.2.1 -  RELEASE  -
|  1> ! PAL5 PBE
|  2> %method
|  3>         method DFT
|  4>         runtyp OPT
|  5> 	#func VWN
|  6> end
|  7> %basis
|  8>         basis "def2-TZVP"
|  9> end
| 10> ! NumFreq
| 11> %output
| 12>         XYZFile true
| 13> end
| 14> %coords
| 15>         CTyp xyz
| 16>         Charge -1
| 17>         Mult 2
| 18>         Units Angs
| 19>         coords
| 20>         S       -1.3964703605      0.5346218729     -0.0392481365
| 21> 	O        0.1725606238      0.5123737189     -0.0821591799
| 22> 	O       -1.9650463708      1.2081038033      1.2597276053
| 23>         end
| 24> endd                         ****END OF INPUT****
 Total Charge           Charge          ....   -1
 Multiplicity           Mult            ....    2
 Number of Electrons    NEL             ....   33
FINAL SINGLE POINT ENERGY      -548.433335182284
FINAL SINGLE POINT ENERGY      -548.434501943358
FINAL SINGLE POINT ENERGY      -548.434963077665
FINAL SINGLE POINT ENERGY      -548.434968836794
                    ***********************HURRAY********************

CARTESIAN COORDINATES (ANGSTROEM)
---------------------------------
  S     -1.383484    0.543068   -0.022957
  O      0.151027    0.513044   -0.080866
  O     -1.956499    1.198987    1.242143

 Multiplicity           Mult            ....    2
 Number of Electrons    NEL             ....   33
 Basis Dimension        Dim             ....   99

ORBITAL ENERGIES
----------------
                 SPIN UP ORBITALS
  NO   OCC          E(Eh)            E(eV)
   0   1.0000     -87.889004     -2391.5814
   1   1.0000     -18.496700      -503.3208
   2   1.0000     -18.496575      -503.3174
   3   1.0000      -7.499028      -204.0589
   4   1.0000      -5.520962      -150.2330
   5   1.0000      -5.517400      -150.1361
   6   1.0000      -5.515631      -150.0880
   7   1.0000      -0.712189       -19.3796
   8   1.0000      -0.634883       -17.2760
   9   1.0000      -0.307606        -8.3704
  10   1.0000      -0.147583        -4.0159
  11   1.0000      -0.139105        -3.7852
  12   1.0000      -0.135067        -3.6754
  13   1.0000      -0.039871        -1.0850
  14   1.0000      -0.015845        -0.4312
  15   1.0000      -0.009110        -0.2479
  16   1.0000       0.095315         2.5936
  17   0.0000       0.249184         6.7806
  18   0.0000       0.252819         6.8796
  19   0.0000       0.430664        11.7190
  20   0.0000       0.433198        11.7879
  21   0.0000       0.476546        12.9675

                 SPIN DOWN ORBITALS
  NO   OCC          E(Eh)            E(eV)
   0   1.0000     -87.886446     -2391.5118
   1   1.0000     -18.490603      -503.1549
   2   1.0000     -18.490465      -503.1511
   3   1.0000      -7.496601      -203.9929
   4   1.0000      -5.519420      -150.1911
   5   1.0000      -5.514255      -150.0505
   6   1.0000      -5.510151      -149.9388
   7   1.0000      -0.702221       -19.1084
   8   1.0000      -0.623839       -16.9755
   9   1.0000      -0.289771        -7.8851
  10   1.0000      -0.140608        -3.8261
  11   1.0000      -0.128336        -3.4922
  12   1.0000      -0.112632        -3.0649
  13   1.0000      -0.014385        -0.3914
  14   1.0000      -0.010557        -0.2873
  15   1.0000       0.000044         0.0012
  16   0.0000       0.134554         3.6614
  17   0.0000       0.259887         7.0719
  18   0.0000       0.262313         7.1379
  19   0.0000       0.436625        11.8812
  20   0.0000       0.451308        12.2807

MULLIKEN ATOMIC CHARGES AND SPIN POPULATIONS
--------------------------------------------
   0 S :    0.153128    0.539394
   1 O :   -0.576644    0.230069
   2 O :   -0.576484    0.230537
Sum of atomic charges         :   -1.0000000

LOEWDIN ATOMIC CHARGES AND SPIN POPULATIONS
-------------------------------------------
   0 S :    0.082258    0.535145
   1 O :   -0.541240    0.232217
   2 O :   -0.541018    0.232638

  Mayer bond orders larger than 0.100000
B(  0-S ,  1-O ) :   1.6073 B(  0-S ,  2-O ) :   1.6065

FINAL SINGLE POINT ENERGY      -548.434968930415

DIPOLE MOMENT
-------------
                                X             Y             Z
Electronic contribution:     -0.35230      -0.22885      -0.44162
Nuclear contribution   :      0.01407       0.00916       0.01766
                        -----------------------------------------
Total Dipole Moment    :     -0.33823      -0.21969      -0.42395
                        -----------------------------------------
Magnitude (a.u.)       :      0.58515
Magnitude (Debye)      :      1.48733

VIBRATIONAL FREQUENCIES
-----------------------

Scaling factor for frequencies =  1.000000000 (already applied!)

   0:         0.00 cm**-1
   1:         0.00 cm**-1
   2:         0.00 cm**-1
   3:         0.00 cm**-1
   4:         0.00 cm**-1
   5:         0.00 cm**-1
   6:       429.45 cm**-1
   7:       944.29 cm**-1
   8:      1032.88 cm**-1

IR SPECTRUM
-----------

 Mode    freq (cm**-1)   T**2         TX         TY         TZ
-------------------------------------------------------------------
   6:       429.45    9.508926  (  1.700535   1.234346   2.256878)
   7:       944.29   46.055487  (  4.036106   2.558654   4.818571)
   8:      1032.88  246.299637  (-12.788196   4.228282   8.055017)

--------------------------
THERMOCHEMISTRY AT 298.15K
--------------------------

Temperature         ... 298.15 K
Pressure            ... 1.00 atm
Total Mass          ... 64.06 AMU

Throughout the following assumptions are being made:
  (1) The electronic state is orbitally nondegenerate
      but the spin degeneracy is treated
  (2) There are no thermally accessible electronically excited states
  (3) Hindered rotations indicated by low frequency modes are not
      treated as such but are treated as vibrations and this may
      cause some error
  (4) All equations used are the standard statistical mechanics
      equations for an ideal gas
  (5) All vibrations are strictly harmonic

freq.     429.45  E(vib)   ...       0.18
freq.     944.29  E(vib)   ...       0.03
freq.    1032.88  E(vib)   ...       0.02

------------
INNER ENERGY
------------

The inner energy is: U= E(el) + E(ZPE) + E(vib) + E(rot) + E(trans)
    E(el)   - is the total energy from the electronic structure calculation
              = E(kin-el) + E(nuc-el) + E(el-el) + E(nuc-nuc)
    E(ZPE)  - the the zero temperature vibrational energy from the frequency calculation
    E(vib)  - the the finite temperature correction to E(ZPE) due to population
              of excited vibrational states
    E(rot)  - is the rotational thermal energy
    E(trans)- is the translational thermal energy

Summary of contributions to the inner energy U:
Electronic energy                ...   -548.43496828 Eh
Zero point energy                ...      0.00548268 Eh       3.44 kcal/mol
Thermal vibrational correction   ...      0.00035988 Eh       0.23 kcal/mol
Thermal rotational correction    ...      0.00141627 Eh       0.89 kcal/mol
Thermal translational correction ...      0.00141627 Eh       0.89 kcal/mol
-----------------------------------------------------------------------
Total thermal energy                   -548.42629316 Eh

Summary of corrections to the electronic energy:
(perhaps to be used in another calculation)
Total thermal correction                  0.00319243 Eh       2.00 kcal/mol
Non-thermal (ZPE) correction              0.00548268 Eh       3.44 kcal/mol
-----------------------------------------------------------------------
Total correction                          0.00867511 Eh       5.44 kcal/mol

--------
ENTHALPY
--------

The enthalpy is H = U + kB*T
                kB is Boltzmann's constant
Total free energy                 ...   -548.42629316 Eh
Thermal Enthalpy correction       ...      0.00094421 Eh       0.59 kcal/mol
-----------------------------------------------------------------------
Total Enthalpy                    ...   -548.42534896 Eh

Note: Rotational entropy computed according to Herzberg
Infrared and Raman Spectra, Chapter V,1, Van Nostrand Reinhold, 1945
Point Group:  Cs, Symmetry Number:   1
Rotational constants in cm-1:     1.518138     0.316297     0.261760

Vibrational entropy computed according to the QRRHO of S. Grimme
Chem.Eur.J. 2012 18 9955

-------
ENTROPY
-------

The entropy contributions are T*S = T*(S(el)+S(vib)+S(rot)+S(trans))
     S(el)   - electronic entropy
     S(vib)  - vibrational entropy
     S(rot)  - rotational entropy
     S(trans)- translational entropy
The entropies will be listed as mutliplied by the temperature to get
units of energy

Electronic entropy                ...      0.00065446 Eh      0.41 kcal/mol
Vibrational entropy               ...      0.00050417 Eh      0.32 kcal/mol
Rotational entropy                ...      0.01048989 Eh      6.58 kcal/mol
Translational entropy             ...      0.01824046 Eh     11.45 kcal/mol
-----------------------------------------------------------------------
Final entropy term                ...      0.02988897 Eh     18.76 kcal/mol

In case the symmetry of your molecule has not been determined correctly
or in case you have a reason to use a different symmetry number we print
out the resulting rotational entropy values for sn=1,12 :
 --------------------------------------------------------
|  sn= 1 | S(rot)=       0.01048989 Eh      6.58 kcal/mol|
|  sn= 2 | S(rot)=       0.00983543 Eh      6.17 kcal/mol|
|  sn= 3 | S(rot)=       0.00945260 Eh      5.93 kcal/mol|
|  sn= 4 | S(rot)=       0.00918097 Eh      5.76 kcal/mol|
|  sn= 5 | S(rot)=       0.00897029 Eh      5.63 kcal/mol|
|  sn= 6 | S(rot)=       0.00879814 Eh      5.52 kcal/mol|
|  sn= 7 | S(rot)=       0.00865260 Eh      5.43 kcal/mol|
|  sn= 8 | S(rot)=       0.00852652 Eh      5.35 kcal/mol|
|  sn= 9 | S(rot)=       0.00841531 Eh      5.28 kcal/mol|
|  sn=10 | S(rot)=       0.00831583 Eh      5.22 kcal/mol|
|  sn=11 | S(rot)=       0.00822584 Eh      5.16 kcal/mol|
|  sn=12 | S(rot)=       0.00814369 Eh      5.11 kcal/mol|
 --------------------------------------------------------

-------------------
GIBBS FREE ENERGY
-------------------

The Gibbs free energy is G = H - T*S

Total enthalpy                    ...   -548.42534896 Eh
Total entropy correction          ...     -0.02988897 Eh    -18.76 kcal/mol
-----------------------------------------------------------------------
Final Gibbs free energy         ...   -548.45523793 Eh

For completeness - the Gibbs free energy minus the electronic energy
G-E(el)                           ...     -0.02026965 Eh    -12.72 kcal/mol

                             ****ORCA TERMINATED NORMALLY****
TOTAL RUN TIME: 0 days 0 hours 0 minutes 55 seconds 592 msec
