                         Program Version 4.2.1 -  RELEASE  -
|  1> ! PBE
|  2>
|  3> %method
|  4>         method DFT
|  5>         runtyp OPT
|  6> end
|  7>
|  8> %basis
|  9>         basis "def2-TZVP"
| 10> end
| 11> ! NumFreq
| 12> %output
| 13>         XYZFile true
| 14> end
| 15> %coords
| 16>         CTyp xyz
| 17>         Charge -2
| 18>         Mult 1
| 19>         Units Angs
| 20>         coords
| 21>         P       -1.3964703605      0.5346218729     -0.0392481365
| 22> 	H        0.1725606238      0.5123737189     -0.0821591799
| 23>         end
| 24> end
| 25>
| 26>                          ****END OF INPUT****
 Total Charge           Charge          ....   -2
 Multiplicity           Mult            ....    1
 Number of Electrons    NEL             ....   18
FINAL SINGLE POINT ENERGY      -341.526477703406
FINAL SINGLE POINT ENERGY      -341.527572561722
FINAL SINGLE POINT ENERGY      -341.527925832553
FINAL SINGLE POINT ENERGY      -341.527945106148
FINAL SINGLE POINT ENERGY      -341.527946071686
                    ***********************HURRAY********************

CARTESIAN COORDINATES (ANGSTROEM)
---------------------------------
  P     -1.355500    0.534041   -0.040369
  H      0.131590    0.512955   -0.081039

 Multiplicity           Mult            ....    1
 Number of Electrons    NEL             ....   18
 Basis Dimension        Dim             ....   43

ORBITAL ENERGIES
----------------

  NO   OCC          E(Eh)            E(eV)
   0   2.0000     -75.751790     -2061.3110
   1   2.0000      -5.749614      -156.4549
   2   2.0000      -3.966288      -107.9282
   3   2.0000      -3.964278      -107.8735
   4   2.0000      -3.964277      -107.8735
   5   2.0000       0.012357         0.3363
   6   2.0000       0.213930         5.8213
   7   2.0000       0.330126         8.9832
   8   2.0000       0.330138         8.9835
   9   0.0000       0.435443        11.8490
  10   0.0000       0.578302        15.7364
  11   0.0000       0.660658        17.9774
  12   0.0000       0.660691        17.9783
  13   0.0000       0.688433        18.7332

MULLIKEN ATOMIC CHARGES
-----------------------
   0 P :   -1.783090
   1 H :   -0.216910
Sum of atomic charges:   -2.0000000

LOEWDIN ATOMIC CHARGES
----------------------
   0 P :   -1.849563
   1 H :   -0.150437

  Mayer bond orders larger than 0.100000
B(  0-P ,  1-H ) :   0.9472

FINAL SINGLE POINT ENERGY      -341.527946094445

DIPOLE MOMENT
-------------
                                X             Y             Z
Electronic contribution:     -1.50566       0.02022       0.03901
Nuclear contribution   :      1.39306      -0.01975      -0.03810
                        -----------------------------------------
Total Dipole Moment    :     -0.11260       0.00047       0.00091
                        -----------------------------------------
Magnitude (a.u.)       :      0.11261
Magnitude (Debye)      :      0.28623

VIBRATIONAL FREQUENCIES
-----------------------

Scaling factor for frequencies =  1.000000000 (already applied!)

   0:         0.00 cm**-1
   1:         0.00 cm**-1
   2:         0.00 cm**-1
   3:         0.00 cm**-1
   4:         0.00 cm**-1
   5:      1925.53 cm**-1

IR SPECTRUM
-----------

 Mode    freq (cm**-1)   T**2         TX         TY         TZ
-------------------------------------------------------------------
   5:      1925.53  788.420064  ( 28.057098  -0.508342  -0.980271)

--------------------------
THERMOCHEMISTRY AT 298.15K
--------------------------

Temperature         ... 298.15 K
Pressure            ... 1.00 atm
Total Mass          ... 31.98 AMU
The molecule is recognized as being linear

Throughout the following assumptions are being made:
  (1) The electronic state is orbitally nondegenerate
  (2) There are no thermally accessible electronically excited states
  (3) Hindered rotations indicated by low frequency modes are not
      treated as such but are treated as vibrations and this may
      cause some error
  (4) All equations used are the standard statistical mechanics
      equations for an ideal gas
  (5) All vibrations are strictly harmonic

freq.    1925.53  E(vib)   ...       0.00

------------
INNER ENERGY
------------

The inner energy is: U= E(el) + E(ZPE) + E(vib) + E(rot) + E(trans)
    E(el)   - is the total energy from the electronic structure calculation
              = E(kin-el) + E(nuc-el) + E(el-el) + E(nuc-nuc)
    E(ZPE)  - the the zero temperature vibrational energy from the frequency calculation
    E(vib)  - the the finite temperature correction to E(ZPE) due to population
              of excited vibrational states
    E(rot)  - is the rotational thermal energy
    E(trans)- is the translational thermal energy

Summary of contributions to the inner energy U:
Electronic energy                ...   -341.52794609 Eh
Zero point energy                ...      0.00438668 Eh       2.75 kcal/mol
Thermal vibrational correction   ...      0.00000081 Eh       0.00 kcal/mol
Thermal rotational correction    ...      0.00094418 Eh       0.59 kcal/mol
Thermal translational correction ...      0.00141627 Eh       0.89 kcal/mol
-----------------------------------------------------------------------
Total thermal energy                   -341.52119815 Eh

Summary of corrections to the electronic energy:
(perhaps to be used in another calculation)
Total thermal correction                  0.00236126 Eh       1.48 kcal/mol
Non-thermal (ZPE) correction              0.00438668 Eh       2.75 kcal/mol
-----------------------------------------------------------------------
Total correction                          0.00674794 Eh       4.23 kcal/mol

--------
ENTHALPY
--------

The enthalpy is H = U + kB*T
                kB is Boltzmann's constant
Total free energy                 ...   -341.52119815 Eh
Thermal Enthalpy correction       ...      0.00094421 Eh       0.59 kcal/mol
-----------------------------------------------------------------------
Total Enthalpy                    ...   -341.52025394 Eh

Note: Rotational entropy computed according to Herzberg
Infrared and Raman Spectra, Chapter V,1, Van Nostrand Reinhold, 1945
Point Group:  Cinfv, Symmetry Number:   1
Rotational constants in cm-1:     0.000000     7.801144     7.801144

Vibrational entropy computed according to the QRRHO of S. Grimme
Chem.Eur.J. 2012 18 9955

-------
ENTROPY
-------

The entropy contributions are T*S = T*(S(el)+S(vib)+S(rot)+S(trans))
     S(el)   - electronic entropy
     S(vib)  - vibrational entropy
     S(rot)  - rotational entropy
     S(trans)- translational entropy
The entropies will be listed as mutliplied by the temperature to get
units of energy

Electronic entropy                ...      0.00000000 Eh      0.00 kcal/mol
Vibrational entropy               ...      0.00000090 Eh      0.00 kcal/mol
Rotational entropy                ...      0.00404066 Eh      2.54 kcal/mol
Translational entropy             ...      0.01725670 Eh     10.83 kcal/mol
-----------------------------------------------------------------------
Final entropy term                ...      0.02129825 Eh     13.36 kcal/mol

In case the symmetry of your molecule has not been determined correctly
or in case you have a reason to use a different symmetry number we print
out the resulting rotational entropy values for sn=1,12 :
 --------------------------------------------------------
|  sn= 1 | S(rot)=      -0.01160101 Eh     -7.28 kcal/mol|
|  sn= 2 | S(rot)=      -0.01225547 Eh     -7.69 kcal/mol|
|  sn= 3 | S(rot)=      -0.01263830 Eh     -7.93 kcal/mol|
|  sn= 4 | S(rot)=      -0.01290993 Eh     -8.10 kcal/mol|
|  sn= 5 | S(rot)=      -0.01312061 Eh     -8.23 kcal/mol|
|  sn= 6 | S(rot)=      -0.01329276 Eh     -8.34 kcal/mol|
|  sn= 7 | S(rot)=      -0.01343830 Eh     -8.43 kcal/mol|
|  sn= 8 | S(rot)=      -0.01356438 Eh     -8.51 kcal/mol|
|  sn= 9 | S(rot)=      -0.01367559 Eh     -8.58 kcal/mol|
|  sn=10 | S(rot)=      -0.01377507 Eh     -8.64 kcal/mol|
|  sn=11 | S(rot)=      -0.01386506 Eh     -8.70 kcal/mol|
|  sn=12 | S(rot)=      -0.01394721 Eh     -8.75 kcal/mol|
 --------------------------------------------------------

-------------------
GIBBS FREE ENERGY
-------------------

The Gibbs free energy is G = H - T*S

Total enthalpy                    ...   -341.52025394 Eh
Total entropy correction          ...     -0.02129825 Eh    -13.36 kcal/mol
-----------------------------------------------------------------------
Final Gibbs free energy         ...   -341.54155219 Eh

For completeness - the Gibbs free energy minus the electronic energy
G-E(el)                           ...     -0.01360610 Eh     -8.54 kcal/mol

                             ****ORCA TERMINATED NORMALLY****
TOTAL RUN TIME: 0 days 0 hours 0 minutes 54 seconds 981 msec
