                         Program Version 5.0.3 -  RELEASE  -
|  1> ! PBE0 NumFreq
|  2> %method
|  3>         method DFT
|  4>         runtyp Energy
|  5> end
|  6> %basis
|  7>         basis "def2-TZVP"
|  8> end
|  9> %coords
| 10>         CTyp xyz
| 11>         Charge 0
| 12>         Mult 1
| 13>         Units Angs
| 14>         coords
| 15> 	#90
| 16> 	N     -1.011290    0.960957    0.000001
| 17> 	C     -1.007970    0.960795   -1.157147
| 18> 	H     -2.068270    1.013340    0.000003
| 19> 	end
| 20> end
| 21> %eprnmr
| 22>         NMRShielding 1
| 23>         Nuclei = all N {shift}
| 24>         Nuclei = all C {shift}
| 25>         Nuclei = all H {shift}
| 26> end
| 27>
| 28>                          ****END OF INPUT****

CARTESIAN COORDINATES (ANGSTROEM)
---------------------------------
  N     -1.011290    0.960957    0.000001
  C     -1.007970    0.960795   -1.157147
  H     -2.068270    1.013340    0.000003

 Total Charge           Charge          ....    0
 Multiplicity           Mult            ....    1
 Number of Electrons    NEL             ....   14
 Basis Dimension        Dim             ....   68

ORBITAL ENERGIES
----------------

  NO   OCC          E(Eh)            E(eV)
   0   2.0000     -14.423910      -392.4945
   1   2.0000     -10.296238      -280.1749
   2   2.0000      -1.032866       -28.1057
   3   2.0000      -0.581115       -15.8129
   4   2.0000      -0.461824       -12.5669
   5   2.0000      -0.412717       -11.2306
   6   2.0000      -0.346753        -9.4356
   7   0.0000      -0.039971        -1.0877
   8   0.0000       0.016119         0.4386
   9   0.0000       0.038166         1.0386
  10   0.0000       0.174504         4.7485
  11   0.0000       0.208570         5.6755

MULLIKEN ATOMIC CHARGES
-----------------------
   0 N :   -0.087864
   1 C :   -0.195981
   2 H :    0.283845
Sum of atomic charges:   -0.0000000

LOEWDIN ATOMIC CHARGES
----------------------
   0 N :   -0.015814
   1 C :   -0.227471
   2 H :    0.243285

  Mayer bond orders larger than 0.100000
B(  0-N ,  1-C ) :   2.1788 B(  0-N ,  2-H ) :   0.7503 B(  1-C ,  2-H ) :   0.2119

FINAL SINGLE POINT ENERGY       -93.289683784286

DIPOLE MOMENT
-------------
                                X             Y             Z
Electronic contribution:      0.35819      -0.01774      -0.16447
Nuclear contribution   :     -0.95582       0.04737       0.48530
                        -----------------------------------------
Total Dipole Moment    :     -0.59764       0.02963       0.32084
                        -----------------------------------------
Magnitude (a.u.)       :      0.67896
Magnitude (Debye)      :      1.72578

CHEMICAL SHIELDING SUMMARY (ppm)
--------------------------------

  Nucleus  Element    Isotropic     Anisotropy
  -------  -------  ------------   ------------
      0       N           32.882        378.396
      1       C          -70.177       -308.852
      2       H           26.780          6.105

VIBRATIONAL FREQUENCIES
-----------------------

Scaling factor for frequencies =  1.000000000 (already applied!)

   0:         0.00 cm**-1
   1:         0.00 cm**-1
   2:         0.00 cm**-1
   3:         0.00 cm**-1
   4:         0.00 cm**-1
   5:         0.00 cm**-1
   6:      -412.40 cm**-1 ***imaginary mode***
   7:      2256.04 cm**-1
   8:      3202.03 cm**-1

IR SPECTRUM
-----------

 Mode   freq       eps      Int      T**2         TX        TY        TZ
       cm**-1   L/(mol*cm) km/mol    a.u.
----------------------------------------------------------------------------
  7:   2256.04   0.015067   76.14  0.002084  ( 0.009834 -0.000489 -0.044578)
  8:   3202.03   0.032361  163.54  0.003154  ( 0.051931 -0.002526 -0.021229)

--------------------------
THERMOCHEMISTRY AT 298.15K
--------------------------

Temperature         ... 298.15 K
Pressure            ... 1.00 atm
Total Mass          ... 27.03 AMU

Throughout the following assumptions are being made:
  (1) The electronic state is orbitally nondegenerate
  (2) There are no thermally accessible electronically excited states
  (3) Hindered rotations indicated by low frequency modes are not
      treated as such but are treated as vibrations and this may
      cause some error
  (4) All equations used are the standard statistical mechanics
      equations for an ideal gas
  (5) All vibrations are strictly harmonic

freq.    2256.04  E(vib)   ...       0.00
freq.    3202.03  E(vib)   ...       0.00

------------
INNER ENERGY
------------

The inner energy is: U= E(el) + E(ZPE) + E(vib) + E(rot) + E(trans)
    E(el)   - is the total energy from the electronic structure calculation
              = E(kin-el) + E(nuc-el) + E(el-el) + E(nuc-nuc)
    E(ZPE)  - the the zero temperature vibrational energy from the frequency calculation
    E(vib)  - the the finite temperature correction to E(ZPE) due to population
              of excited vibrational states
    E(rot)  - is the rotational thermal energy
    E(trans)- is the translational thermal energy

Summary of contributions to the inner energy U:
Electronic energy                ...    -93.28968378 Eh
Zero point energy                ...      0.01243440 Eh       7.80 kcal/mol
Thermal vibrational correction   ...      0.00000020 Eh       0.00 kcal/mol
Thermal rotational correction    ...      0.00141627 Eh       0.89 kcal/mol
Thermal translational correction ...      0.00141627 Eh       0.89 kcal/mol
-----------------------------------------------------------------------
Total thermal energy                    -93.27441665 Eh

Summary of corrections to the electronic energy:
(perhaps to be used in another calculation)
Total thermal correction                  0.00283274 Eh       1.78 kcal/mol
Non-thermal (ZPE) correction              0.01243440 Eh       7.80 kcal/mol
-----------------------------------------------------------------------
Total correction                          0.01526714 Eh       9.58 kcal/mol

--------
ENTHALPY
--------

The enthalpy is H = U + kB*T
                kB is Boltzmann's constant
Total free energy                 ...    -93.27441665 Eh
Thermal Enthalpy correction       ...      0.00094421 Eh       0.59 kcal/mol
-----------------------------------------------------------------------
Total Enthalpy                    ...    -93.27347244 Eh

Note: Rotational entropy computed according to Herzberg
Infrared and Raman Spectra, Chapter V,1, Van Nostrand Reinhold, 1945
Point Group:  Cs, Symmetry Number:   1
Rotational constants in cm-1:    16.082196     1.877884     1.681534

Vibrational entropy computed according to the QRRHO of S. Grimme
Chem.Eur.J. 2012 18 9955

-------
ENTROPY
-------

The entropy contributions are T*S = T*(S(el)+S(vib)+S(rot)+S(trans))
     S(el)   - electronic entropy
     S(vib)  - vibrational entropy
     S(rot)  - rotational entropy
     S(trans)- translational entropy
The entropies will be listed as multiplied by the temperature to get
units of energy

Electronic entropy                ...      0.00000000 Eh      0.00 kcal/mol
Vibrational entropy               ...      0.00000021 Eh      0.00 kcal/mol
Rotational entropy                ...      0.00765664 Eh      4.80 kcal/mol
Translational entropy             ...      0.01701823 Eh     10.68 kcal/mol
-----------------------------------------------------------------------
Final entropy term                ...      0.02467509 Eh     15.48 kcal/mol

In case the symmetry of your molecule has not been determined correctly
or in case you have a reason to use a different symmetry number we print
out the resulting rotational entropy values for sn=1,12 :
 --------------------------------------------------------
|  sn= 1 | S(rot)=       0.00765664 Eh      4.80 kcal/mol|
|  sn= 2 | S(rot)=       0.00700219 Eh      4.39 kcal/mol|
|  sn= 3 | S(rot)=       0.00661936 Eh      4.15 kcal/mol|
|  sn= 4 | S(rot)=       0.00634773 Eh      3.98 kcal/mol|
|  sn= 5 | S(rot)=       0.00613704 Eh      3.85 kcal/mol|
|  sn= 6 | S(rot)=       0.00596490 Eh      3.74 kcal/mol|
|  sn= 7 | S(rot)=       0.00581935 Eh      3.65 kcal/mol|
|  sn= 8 | S(rot)=       0.00569328 Eh      3.57 kcal/mol|
|  sn= 9 | S(rot)=       0.00558207 Eh      3.50 kcal/mol|
|  sn=10 | S(rot)=       0.00548259 Eh      3.44 kcal/mol|
|  sn=11 | S(rot)=       0.00539260 Eh      3.38 kcal/mol|
|  sn=12 | S(rot)=       0.00531044 Eh      3.33 kcal/mol|
 --------------------------------------------------------

-------------------
GIBBS FREE ENERGY
-------------------

The Gibbs free energy is G = H - T*S

Total enthalpy                    ...    -93.27347244 Eh
Total entropy correction          ...     -0.02467509 Eh    -15.48 kcal/mol
-----------------------------------------------------------------------
Final Gibbs free energy         ...    -93.29814753 Eh

For completeness - the Gibbs free energy minus the electronic energy
G-E(el)                           ...     -0.00846374 Eh     -5.31 kcal/mol

                             ****ORCA TERMINATED NORMALLY****
TOTAL RUN TIME: 0 days 0 hours 3 minutes 8 seconds 150 msec
