                         Program Version 5.0.3 -  RELEASE  -
|  1> ! VWN
|  2> %method
|  3>         method DFT
|  4>         runtyp OPT
|  5> end
|  6>
|  7> %cpcm
|  8>        epsilon 80.4
|  9>        refrac 1.33
| 10>        fepstype cosmo
| 11> end
| 12> %scf
| 13>        MaxIter 500
| 14> end
| 15> %geom
| 16>        MaxIter 500
| 17>        Convergence loose
| 18> end
| 19>
| 20> %basis
| 21>         basis "def2-SVP"
| 22> end
| 23> ! NumFreq
| 24> %elprop
| 25>         Polar 1
| 26> end
| 27> %output
| 28>         XYZFile true
| 29> end
| 30> %coords
| 31>         CTyp xyz
| 32>         Charge 0
| 33>         Mult 2
| 34>         Units Angs
| 35>         coords
| 36> 	O	0	0	0
| 37> 	H	1	0	0
| 38>         end
| 39> end
| 40>
| 41>                          ****END OF INPUT****
 Total Charge           Charge          ....    0
 Multiplicity           Mult            ....    2
 Number of Electrons    NEL             ....    9
FINAL SINGLE POINT ENERGY       -75.104116877055
FINAL SINGLE POINT ENERGY       -75.104163247417
                    ***********************HURRAY********************

CARTESIAN COORDINATES (ANGSTROEM)
---------------------------------
  O      0.003805    0.000000    0.000000
  H      0.996195    0.000000    0.000000

 Multiplicity           Mult            ....    2
 Number of Electrons    NEL             ....    9
 Basis Dimension        Dim             ....   19

ORBITAL ENERGIES
----------------
                 SPIN UP ORBITALS
  NO   OCC          E(Eh)            E(eV)
   0   1.0000     -18.655430      -507.6401
   1   1.0000      -0.875387       -23.8205
   2   1.0000      -0.398772       -10.8511
   3   1.0000      -0.333866        -9.0850
   4   1.0000      -0.267326        -7.2743
   5   0.0000       0.054291         1.4773
   6   0.0000       0.526327        14.3221
   7   0.0000       0.785087        21.3633
   8   0.0000       0.809619        22.0308
   9   0.0000       0.826255        22.4835

                 SPIN DOWN ORBITALS
  NO   OCC          E(Eh)            E(eV)
   0   1.0000     -18.629883      -506.9449
   1   1.0000      -0.823909       -22.4197
   2   1.0000      -0.369641       -10.0584
   3   1.0000      -0.235789        -6.4161
   4   0.0000      -0.231689        -6.3046
   5   0.0000       0.064279         1.7491
   6   0.0000       0.534543        14.5457
   7   0.0000       0.835858        22.7448
   8   0.0000       0.849466        23.1151

MULLIKEN ATOMIC CHARGES AND SPIN POPULATIONS
--------------------------------------------
   0 O :   -0.243091    1.025528
   1 H :    0.243091   -0.025528
Sum of atomic charges         :    0.0000000

LOEWDIN ATOMIC CHARGES AND SPIN POPULATIONS
-------------------------------------------
   0 O :   -0.105825    0.999478
   1 H :    0.105825    0.000522

  Mayer bond orders larger than 0.100000
B(  0-O ,  1-H ) :   0.9651

FINAL SINGLE POINT ENERGY       -75.104163251478

DIPOLE MOMENT
-------------
                                X             Y             Z
Electronic contribution:     -0.08822       0.00000       0.00000
Nuclear contribution   :      0.87498       0.00000       0.00000
                        -----------------------------------------
Total Dipole Moment    :      0.78676       0.00000       0.00000
                        -----------------------------------------
Magnitude (a.u.)       :      0.78676
Magnitude (Debye)      :      1.99979

VIBRATIONAL FREQUENCIES
-----------------------

Scaling factor for frequencies =  1.000000000 (already applied!)

   0:         0.00 cm**-1
   1:         0.00 cm**-1
   2:         0.00 cm**-1
   3:         0.00 cm**-1
   4:         0.00 cm**-1
   5:      3566.99 cm**-1

IR SPECTRUM
-----------

 Mode   freq       eps      Int      T**2         TX        TY        TZ
       cm**-1   L/(mol*cm) km/mol    a.u.
----------------------------------------------------------------------------
  5:   3566.99   0.008662   43.77  0.000758  ( 0.027528  0.000000  0.000000)

--------------------------
THERMOCHEMISTRY AT 298.15K
--------------------------

Temperature         ... 298.15 K
Pressure            ... 1.00 atm
Total Mass          ... 17.01 AMU
The molecule is recognized as being linear

Throughout the following assumptions are being made:
  (1) The electronic state is orbitally nondegenerate
      but the spin degeneracy is treated
  (2) There are no thermally accessible electronically excited states
  (3) Hindered rotations indicated by low frequency modes are not
      treated as such but are treated as vibrations and this may
      cause some error
  (4) All equations used are the standard statistical mechanics
      equations for an ideal gas
  (5) All vibrations are strictly harmonic

freq.    3566.99  E(vib)   ...       0.00

------------
INNER ENERGY
------------

The inner energy is: U= E(el) + E(ZPE) + E(vib) + E(rot) + E(trans)
    E(el)   - is the total energy from the electronic structure calculation
              = E(kin-el) + E(nuc-el) + E(el-el) + E(nuc-nuc)
    E(ZPE)  - the the zero temperature vibrational energy from the frequency calculation
    E(vib)  - the the finite temperature correction to E(ZPE) due to population
              of excited vibrational states
    E(rot)  - is the rotational thermal energy
    E(trans)- is the translational thermal energy

Summary of contributions to the inner energy U:
Electronic energy                ...    -75.10416325 Eh
Zero point energy                ...      0.00812619 Eh       5.10 kcal/mol
Thermal vibrational correction   ...      0.00000000 Eh       0.00 kcal/mol
Thermal rotational correction    ...      0.00094418 Eh       0.59 kcal/mol
Thermal translational correction ...      0.00141627 Eh       0.89 kcal/mol
-----------------------------------------------------------------------
Total thermal energy                    -75.09367660 Eh

Summary of corrections to the electronic energy:
(perhaps to be used in another calculation)
Total thermal correction                  0.00236045 Eh       1.48 kcal/mol
Non-thermal (ZPE) correction              0.00812619 Eh       5.10 kcal/mol
-----------------------------------------------------------------------
Total correction                          0.01048665 Eh       6.58 kcal/mol

--------
ENTHALPY
--------

The enthalpy is H = U + kB*T
                kB is Boltzmann's constant
Total free energy                 ...    -75.09367660 Eh
Thermal Enthalpy correction       ...      0.00094421 Eh       0.59 kcal/mol
-----------------------------------------------------------------------
Total Enthalpy                    ...    -75.09273240 Eh

Note: Rotational entropy computed according to Herzberg
Infrared and Raman Spectra, Chapter V,1, Van Nostrand Reinhold, 1945
Point Group:  Cinfv, Symmetry Number:   1
Rotational constants in cm-1:     0.000000    18.051216    18.051216

Vibrational entropy computed according to the QRRHO of S. Grimme
Chem.Eur.J. 2012 18 9955

-------
ENTROPY
-------

The entropy contributions are T*S = T*(S(el)+S(vib)+S(rot)+S(trans))
     S(el)   - electronic entropy
     S(vib)  - vibrational entropy
     S(rot)  - rotational entropy
     S(trans)- translational entropy
The entropies will be listed as multiplied by the temperature to get
units of energy

Electronic entropy                ...      0.00065446 Eh      0.41 kcal/mol
Vibrational entropy               ...      0.00000000 Eh      0.00 kcal/mol
Rotational entropy                ...      0.00324855 Eh      2.04 kcal/mol
Translational entropy             ...      0.01636225 Eh     10.27 kcal/mol
-----------------------------------------------------------------------
Final entropy term                ...      0.02026526 Eh     12.72 kcal/mol

-------------------
GIBBS FREE ENERGY
-------------------

The Gibbs free energy is G = H - T*S

Total enthalpy                    ...    -75.09273240 Eh
Total entropy correction          ...     -0.02026526 Eh    -12.72 kcal/mol
-----------------------------------------------------------------------
Final Gibbs free energy         ...    -75.11299765 Eh

For completeness - the Gibbs free energy minus the electronic energy
G-E(el)                           ...     -0.00883440 Eh     -5.54 kcal/mol

                             ****ORCA TERMINATED NORMALLY****
TOTAL RUN TIME: 0 days 0 hours 4 minutes 18 seconds 308 msec
