                         Program Version 5.0.3 -  RELEASE  -
|  1> ! PAL5 PBE0 NumFreq
|  2> %method
|  3>         method DFT
|  4>         runtyp Energy
|  5> end
|  6> %basis
|  7>         basis "def2-TZVP"
|  8> end
|  9> %coords
| 10>         CTyp xyz
| 11>         Charge 0
| 12>         Mult 1
| 13>         Units Angs
| 14>         coords
| 15> 	#23.3
| 16> 	C      0.901163    0.213223   -0.028373
| 17> 	C      2.433052    0.225083   -0.148833
| 18> 	H      0.598361   -0.191071    0.940131
| 19> 	H      0.462121   -0.404656   -0.814888
| 20> 	H      0.504028    1.226608   -0.120863
| 21> 	H      2.763812   -0.521759   -0.874150
| 22> 	H      2.781611    1.206533   -0.477840
| 23> 	H      2.892631   -0.000931    0.815945
| 24> 	end
| 25> end
| 26> %eprnmr
| 27>         NMRShielding 1
| 28>         Nuclei = all C {shift}
| 29>         Nuclei = all H {shift}
| 30> end
| 31>
| 32>                          ****END OF INPUT****

CARTESIAN COORDINATES (ANGSTROEM)
---------------------------------
  C      0.901163    0.213223   -0.028373
  C      2.433052    0.225083   -0.148833
  H      0.598361   -0.191071    0.940131
  H      0.462121   -0.404656   -0.814888
  H      0.504028    1.226608   -0.120863
  H      2.763812   -0.521759   -0.874150
  H      2.781611    1.206533   -0.477840
  H      2.892631   -0.000931    0.815945

 Total Charge           Charge          ....    0
 Multiplicity           Mult            ....    1
 Number of Electrons    NEL             ....   18
 Basis Dimension        Dim             ....   98

ORBITAL ENERGIES
----------------

  NO   OCC          E(Eh)            E(eV)
   0   2.0000     -10.206179      -277.7242
   1   2.0000     -10.205961      -277.7183
   2   2.0000      -0.773107       -21.0373
   3   2.0000      -0.630642       -17.1606
   4   2.0000      -0.449182       -12.2229
   5   2.0000      -0.449176       -12.2227
   6   2.0000      -0.373540       -10.1645
   7   2.0000      -0.351292        -9.5591
   8   2.0000      -0.351276        -9.5587
   9   0.0000       0.053251         1.4490
  10   0.0000       0.089555         2.4369
  11   0.0000       0.102203         2.7811
  12   0.0000       0.102216         2.7814
  13   0.0000       0.178840         4.8665

MULLIKEN ATOMIC CHARGES
-----------------------
   0 C :   -0.347569
   1 C :   -0.346866
   2 H :    0.115786
   3 H :    0.115795
   4 H :    0.115753
   5 H :    0.115646
   6 H :    0.115728
   7 H :    0.115725
Sum of atomic charges:   -0.0000000

LOEWDIN ATOMIC CHARGES
----------------------
   0 C :   -0.350086
   1 C :   -0.350044
   2 H :    0.116691
   3 H :    0.116697
   4 H :    0.116698
   5 H :    0.116696
   6 H :    0.116669
   7 H :    0.116678

  Mayer bond orders larger than 0.100000
B(  0-C ,  1-C ) :   0.9816 B(  0-C ,  2-H ) :   0.9764 B(  0-C ,  3-H ) :   0.9764
B(  0-C ,  4-H ) :   0.9764 B(  1-C ,  5-H ) :   0.9764 B(  1-C ,  6-H ) :   0.9764
B(  1-C ,  7-H ) :   0.9764

FINAL SINGLE POINT ENERGY       -79.745819391194

DIPOLE MOMENT
-------------
                                X             Y             Z
Electronic contribution:      0.00003       0.00011      -0.00001
Nuclear contribution   :     -0.00006      -0.00015      -0.00004
                        -----------------------------------------
Total Dipole Moment    :     -0.00004      -0.00003      -0.00005
                        -----------------------------------------
Magnitude (a.u.)       :      0.00007
Magnitude (Debye)      :      0.00017

CHEMICAL SHIELDING SUMMARY (ppm)
--------------------------------

  Nucleus  Element    Isotropic     Anisotropy
  -------  -------  ------------   ------------
      0       C          183.300         19.546
      1       C          183.287         19.555
      2       H           30.790          9.186
      3       H           30.789          9.185
      4       H           30.789          9.185
      5       H           30.789          9.183
      6       H           30.791          9.184
      7       H           30.791          9.182

VIBRATIONAL FREQUENCIES
-----------------------

Scaling factor for frequencies =  1.000000000 (already applied!)

   0:         0.00 cm**-1
   1:         0.00 cm**-1
   2:         0.00 cm**-1
   3:         0.00 cm**-1
   4:         0.00 cm**-1
   5:         0.00 cm**-1
   6:      -229.07 cm**-1 ***imaginary mode***
   7:       909.42 cm**-1
   8:       910.37 cm**-1
   9:      1019.38 cm**-1
  10:      1183.57 cm**-1
  11:      1183.94 cm**-1
  12:      1386.56 cm**-1
  13:      1419.36 cm**-1
  14:      1491.28 cm**-1
  15:      1491.76 cm**-1
  16:      1502.64 cm**-1
  17:      1503.32 cm**-1
  18:      3041.46 cm**-1
  19:      3047.93 cm**-1
  20:      3111.70 cm**-1
  21:      3112.05 cm**-1
  22:      3134.89 cm**-1
  23:      3135.53 cm**-1

IR SPECTRUM
-----------

 Mode   freq       eps      Int      T**2         TX        TY        TZ
       cm**-1   L/(mol*cm) km/mol    a.u.
----------------------------------------------------------------------------
  7:    909.42   0.000747    3.78  0.000256  ( 0.001131 -0.011191  0.011397)
  8:    910.37   0.000883    4.46  0.000303  ( 0.000974  0.011943  0.012614)
  9:   1019.38   0.000000    0.00  0.000000  (-0.000013  0.000086  0.000053)
 10:   1183.57   0.000001    0.01  0.000000  (-0.000032  0.000600  0.000002)
 11:   1183.94   0.000005    0.03  0.000001  ( 0.000033  0.000732 -0.000893)
 12:   1386.56   0.000724    3.66  0.000163  ( 0.012734  0.000173 -0.000814)
 13:   1419.36   0.000001    0.01  0.000000  ( 0.000094  0.000429  0.000247)
 14:   1491.28   0.000036    0.18  0.000007  (-0.000130  0.002488 -0.001136)
 15:   1491.76   0.000045    0.23  0.000009  (-0.000011 -0.001247  0.002789)
 16:   1502.64   0.002328   11.76  0.000483  ( 0.001873 -0.008850  0.020040)
 17:   1503.32   0.002455   12.41  0.000510  (-0.000680 -0.019729 -0.010954)
 18:   3041.46   0.011060   55.89  0.001135  (-0.033622 -0.000376  0.002051)
 19:   3047.93   0.000009    0.04  0.000001  (-0.000471 -0.000758 -0.000280)
 20:   3111.70   0.000001    0.00  0.000000  ( 0.000233  0.000178  0.000094)
 21:   3112.05   0.000004    0.02  0.000000  (-0.000000  0.000601  0.000199)
 22:   3134.89   0.008715   44.04  0.000868  (-0.001063 -0.026468 -0.012879)
 23:   3135.53   0.009109   46.03  0.000907  (-0.002268  0.013299 -0.026918)

--------------------------
THERMOCHEMISTRY AT 298.15K
--------------------------

Temperature         ... 298.15 K
Pressure            ... 1.00 atm
Total Mass          ... 30.07 AMU

Throughout the following assumptions are being made:
  (1) The electronic state is orbitally nondegenerate
  (2) There are no thermally accessible electronically excited states
  (3) Hindered rotations indicated by low frequency modes are not
      treated as such but are treated as vibrations and this may
      cause some error
  (4) All equations used are the standard statistical mechanics
      equations for an ideal gas
  (5) All vibrations are strictly harmonic

freq.     909.42  E(vib)   ...       0.03
freq.     910.37  E(vib)   ...       0.03
freq.    1019.38  E(vib)   ...       0.02
freq.    1183.57  E(vib)   ...       0.01
freq.    1183.94  E(vib)   ...       0.01
freq.    1386.56  E(vib)   ...       0.00
freq.    1419.36  E(vib)   ...       0.00
freq.    1491.28  E(vib)   ...       0.00
freq.    1491.76  E(vib)   ...       0.00
freq.    1502.64  E(vib)   ...       0.00
freq.    1503.32  E(vib)   ...       0.00
freq.    3041.46  E(vib)   ...       0.00
freq.    3047.93  E(vib)   ...       0.00
freq.    3111.70  E(vib)   ...       0.00
freq.    3112.05  E(vib)   ...       0.00
freq.    3134.89  E(vib)   ...       0.00
freq.    3135.53  E(vib)   ...       0.00

------------
INNER ENERGY
------------

The inner energy is: U= E(el) + E(ZPE) + E(vib) + E(rot) + E(trans)
    E(el)   - is the total energy from the electronic structure calculation
              = E(kin-el) + E(nuc-el) + E(el-el) + E(nuc-nuc)
    E(ZPE)  - the the zero temperature vibrational energy from the frequency calculation
    E(vib)  - the the finite temperature correction to E(ZPE) due to population
              of excited vibrational states
    E(rot)  - is the rotational thermal energy
    E(trans)- is the translational thermal energy

Summary of contributions to the inner energy U:
Electronic energy                ...    -79.74581939 Eh
Zero point energy                ...      0.07423446 Eh      46.58 kcal/mol
Thermal vibrational correction   ...      0.00020863 Eh       0.13 kcal/mol
Thermal rotational correction    ...      0.00141627 Eh       0.89 kcal/mol
Thermal translational correction ...      0.00141627 Eh       0.89 kcal/mol
-----------------------------------------------------------------------
Total thermal energy                    -79.66854377 Eh

Summary of corrections to the electronic energy:
(perhaps to be used in another calculation)
Total thermal correction                  0.00304117 Eh       1.91 kcal/mol
Non-thermal (ZPE) correction              0.07423446 Eh      46.58 kcal/mol
-----------------------------------------------------------------------
Total correction                          0.07727563 Eh      48.49 kcal/mol

--------
ENTHALPY
--------

The enthalpy is H = U + kB*T
                kB is Boltzmann's constant
Total free energy                 ...    -79.66854377 Eh
Thermal Enthalpy correction       ...      0.00094421 Eh       0.59 kcal/mol
-----------------------------------------------------------------------
Total Enthalpy                    ...    -79.66759956 Eh

Note: Rotational entropy computed according to Herzberg
Infrared and Raman Spectra, Chapter V,1, Van Nostrand Reinhold, 1945
Point Group:  D3, Symmetry Number:   6
Rotational constants in cm-1:     2.659369     0.665332     0.665327

Vibrational entropy computed according to the QRRHO of S. Grimme
Chem.Eur.J. 2012 18 9955

-------
ENTROPY
-------

The entropy contributions are T*S = T*(S(el)+S(vib)+S(rot)+S(trans))
     S(el)   - electronic entropy
     S(vib)  - vibrational entropy
     S(rot)  - rotational entropy
     S(trans)- translational entropy
The entropies will be listed as multiplied by the temperature to get
units of energy

Electronic entropy                ...      0.00000000 Eh      0.00 kcal/mol
Vibrational entropy               ...      0.00025039 Eh      0.16 kcal/mol
Rotational entropy                ...      0.00774205 Eh      4.86 kcal/mol
Translational entropy             ...      0.01716939 Eh     10.77 kcal/mol
-----------------------------------------------------------------------
Final entropy term                ...      0.02516183 Eh     15.79 kcal/mol

In case the symmetry of your molecule has not been determined correctly
or in case you have a reason to use a different symmetry number we print
out the resulting rotational entropy values for sn=1,12 :
 --------------------------------------------------------
|  sn= 1 | S(rot)=       0.00943379 Eh      5.92 kcal/mol|
|  sn= 2 | S(rot)=       0.00877934 Eh      5.51 kcal/mol|
|  sn= 3 | S(rot)=       0.00839650 Eh      5.27 kcal/mol|
|  sn= 4 | S(rot)=       0.00812488 Eh      5.10 kcal/mol|
|  sn= 5 | S(rot)=       0.00791419 Eh      4.97 kcal/mol|
|  sn= 6 | S(rot)=       0.00774205 Eh      4.86 kcal/mol|
|  sn= 7 | S(rot)=       0.00759650 Eh      4.77 kcal/mol|
|  sn= 8 | S(rot)=       0.00747042 Eh      4.69 kcal/mol|
|  sn= 9 | S(rot)=       0.00735921 Eh      4.62 kcal/mol|
|  sn=10 | S(rot)=       0.00725973 Eh      4.56 kcal/mol|
|  sn=11 | S(rot)=       0.00716974 Eh      4.50 kcal/mol|
|  sn=12 | S(rot)=       0.00708759 Eh      4.45 kcal/mol|
 --------------------------------------------------------

-------------------
GIBBS FREE ENERGY
-------------------

The Gibbs free energy is G = H - T*S

Total enthalpy                    ...    -79.66759956 Eh
Total entropy correction          ...     -0.02516183 Eh    -15.79 kcal/mol
-----------------------------------------------------------------------
Final Gibbs free energy         ...    -79.69276138 Eh

For completeness - the Gibbs free energy minus the electronic energy
G-E(el)                           ...      0.05305801 Eh     33.29 kcal/mol

                             ****ORCA TERMINATED NORMALLY****
TOTAL RUN TIME: 0 days 0 hours 3 minutes 31 seconds 795 msec
