                         Program Version 4.2.1 -  RELEASE  -
|  1> ! VWN
|  2> %method
|  3>         method DFT
|  4>         runtyp OPT
|  5> end
|  6> %basis
|  7>         basis "def2-TZVP"
|  8> end
|  9> ! NumFreq
| 10> %output
| 11>         XYZFile true
| 12> end
| 13> %coords
| 14>         CTyp xyz
| 15>         Charge -1
| 16>         Mult 2
| 17>         Units Angs
| 18>         coords
| 19>         S       -1.3964703605      0.5346218729     -0.0392481365
| 20>         O        0.1725606238      0.5123737189     -0.0821591799
| 21>         O       -1.9650463708      1.2081038033      1.2597276053
| 22>         end
| 23> end
| 24>
| 25>
| 26>                          ****END OF INPUT****
 Total Charge           Charge          ....   -1
 Multiplicity           Mult            ....    2
 Number of Electrons    NEL             ....   33
FINAL SINGLE POINT ENERGY      -546.339115143072
FINAL SINGLE POINT ENERGY      -546.342055057484
FINAL SINGLE POINT ENERGY      -546.343171364823
FINAL SINGLE POINT ENERGY      -546.343208212673
FINAL SINGLE POINT ENERGY      -546.343208572526
                    ***********************HURRAY********************

CARTESIAN COORDINATES (ANGSTROEM)
---------------------------------
  S     -1.381050    0.544655   -0.019896
  O      0.134241    0.517319   -0.072622
  O     -1.942147    1.193126    1.230839

 Multiplicity           Mult            ....    2
 Number of Electrons    NEL             ....   33
 Basis Dimension        Dim             ....   99

ORBITAL ENERGIES
----------------
                 SPIN UP ORBITALS
  NO   OCC          E(Eh)            E(eV)
   0   1.0000     -87.551060     -2382.3855
   1   1.0000     -18.358527      -499.5609
   2   1.0000     -18.358347      -499.5560
   3   1.0000      -7.462998      -203.0785
   4   1.0000      -5.519142      -150.1835
   5   1.0000      -5.515143      -150.0747
   6   1.0000      -5.513765      -150.0372
   7   1.0000      -0.722726       -19.6664
   8   1.0000      -0.639448       -17.4003
   9   1.0000      -0.304668        -8.2904
  10   1.0000      -0.156712        -4.2644
  11   1.0000      -0.149922        -4.0796
  12   1.0000      -0.147575        -4.0157
  13   1.0000      -0.049137        -1.3371
  14   1.0000      -0.027079        -0.7369
  15   1.0000      -0.018433        -0.5016
  16   1.0000       0.096367         2.6223
  17   0.0000       0.247088         6.7236
  18   0.0000       0.247877         6.7451
  19   0.0000       0.423221        11.5164
  20   0.0000       0.424157        11.5419
  21   0.0000       0.469618        12.7790

                 SPIN DOWN ORBITALS
  NO   OCC          E(Eh)            E(eV)
   0   1.0000     -87.548149     -2382.3062
   1   1.0000     -18.351543      -499.3709
   2   1.0000     -18.351353      -499.3657
   3   1.0000      -7.459781      -202.9910
   4   1.0000      -5.516788      -150.1194
   5   1.0000      -5.511446      -149.9741
   6   1.0000      -5.507894      -149.8774
   7   1.0000      -0.712469       -19.3873
   8   1.0000      -0.628379       -17.0990
   9   1.0000      -0.288224        -7.8430
  10   1.0000      -0.147861        -4.0235
  11   1.0000      -0.139277        -3.7899
  12   1.0000      -0.128365        -3.4930
  13   1.0000      -0.027991        -0.7617
  14   1.0000      -0.019747        -0.5373
  15   1.0000      -0.007763        -0.2112
  16   0.0000       0.126416         3.4400
  17   0.0000       0.254987         6.9385
  18   0.0000       0.259969         7.0741
  19   0.0000       0.429972        11.7001
  20   0.0000       0.438586        11.9345

MULLIKEN ATOMIC CHARGES AND SPIN POPULATIONS
--------------------------------------------
   0 S :    0.119437    0.556067
   1 O :   -0.559626    0.221807
   2 O :   -0.559811    0.222126
Sum of atomic charges         :   -1.0000000

LOEWDIN ATOMIC CHARGES AND SPIN POPULATIONS
-------------------------------------------
   0 S :    0.051140    0.544798
   1 O :   -0.525643    0.227455
   2 O :   -0.525497    0.227747

  Mayer bond orders larger than 0.100000
B(  0-S ,  1-O ) :   1.6137 B(  0-S ,  2-O ) :   1.6123

FINAL SINGLE POINT ENERGY      -546.343208489026

DIPOLE MOMENT
-------------
                                X             Y             Z
Electronic contribution:     -0.34974      -0.22732      -0.43861
Nuclear contribution   :      0.01396       0.00909       0.01753
                        -----------------------------------------
Total Dipole Moment    :     -0.33577      -0.21823      -0.42108
                        -----------------------------------------
Magnitude (a.u.)       :      0.58110
Magnitude (Debye)      :      1.47704

VIBRATIONAL FREQUENCIES
-----------------------

Scaling factor for frequencies =  1.000000000 (already applied!)

   0:         0.00 cm**-1
   1:         0.00 cm**-1
   2:         0.00 cm**-1
   3:         0.00 cm**-1
   4:         0.00 cm**-1
   5:         0.00 cm**-1
   6:       440.84 cm**-1
   7:       989.71 cm**-1
   8:      1083.17 cm**-1

IR SPECTRUM
-----------

 Mode    freq (cm**-1)   T**2         TX         TY         TZ
-------------------------------------------------------------------
   6:       440.84   10.185933  (  1.819878   1.205349   2.328328)
   7:       989.71   51.258641  (  4.100120   2.699373   5.211625)
   8:      1083.17  257.481840  (-13.130065   4.242950   8.190275)

--------------------------
THERMOCHEMISTRY AT 298.15K
--------------------------

Temperature         ... 298.15 K
Pressure            ... 1.00 atm
Total Mass          ... 64.06 AMU

Throughout the following assumptions are being made:
  (1) The electronic state is orbitally nondegenerate
      but the spin degeneracy is treated
  (2) There are no thermally accessible electronically excited states
  (3) Hindered rotations indicated by low frequency modes are not
      treated as such but are treated as vibrations and this may
      cause some error
  (4) All equations used are the standard statistical mechanics
      equations for an ideal gas
  (5) All vibrations are strictly harmonic

freq.     440.84  E(vib)   ...       0.17
freq.     989.71  E(vib)   ...       0.02
freq.    1083.17  E(vib)   ...       0.02

------------
INNER ENERGY
------------

The inner energy is: U= E(el) + E(ZPE) + E(vib) + E(rot) + E(trans)
    E(el)   - is the total energy from the electronic structure calculation
              = E(kin-el) + E(nuc-el) + E(el-el) + E(nuc-nuc)
    E(ZPE)  - the the zero temperature vibrational energy from the frequency calculation
    E(vib)  - the the finite temperature correction to E(ZPE) due to population
              of excited vibrational states
    E(rot)  - is the rotational thermal energy
    E(trans)- is the translational thermal energy

Summary of contributions to the inner energy U:
Electronic energy                ...   -546.34320858 Eh
Zero point energy                ...      0.00572668 Eh       3.59 kcal/mol
Thermal vibrational correction   ...      0.00033671 Eh       0.21 kcal/mol
Thermal rotational correction    ...      0.00141627 Eh       0.89 kcal/mol
Thermal translational correction ...      0.00141627 Eh       0.89 kcal/mol
-----------------------------------------------------------------------
Total thermal energy                   -546.33431265 Eh

Summary of corrections to the electronic energy:
(perhaps to be used in another calculation)
Total thermal correction                  0.00316925 Eh       1.99 kcal/mol
Non-thermal (ZPE) correction              0.00572668 Eh       3.59 kcal/mol
-----------------------------------------------------------------------
Total correction                          0.00889593 Eh       5.58 kcal/mol

--------
ENTHALPY
--------

The enthalpy is H = U + kB*T
                kB is Boltzmann's constant
Total free energy                 ...   -546.33431265 Eh
Thermal Enthalpy correction       ...      0.00094421 Eh       0.59 kcal/mol
-----------------------------------------------------------------------
Total Enthalpy                    ...   -546.33336844 Eh

Note: Rotational entropy computed according to Herzberg
Infrared and Raman Spectra, Chapter V,1, Van Nostrand Reinhold, 1945
Point Group:  Cs, Symmetry Number:   1
Rotational constants in cm-1:     1.541487     0.325855     0.268992

Vibrational entropy computed according to the QRRHO of S. Grimme
Chem.Eur.J. 2012 18 9955

-------
ENTROPY
-------

The entropy contributions are T*S = T*(S(el)+S(vib)+S(rot)+S(trans))
     S(el)   - electronic entropy
     S(vib)  - vibrational entropy
     S(rot)  - rotational entropy
     S(trans)- translational entropy
The entropies will be listed as mutliplied by the temperature to get
units of energy

Electronic entropy                ...      0.00065446 Eh      0.41 kcal/mol
Vibrational entropy               ...      0.00047031 Eh      0.30 kcal/mol
Rotational entropy                ...      0.01045576 Eh      6.56 kcal/mol
Translational entropy             ...      0.01824046 Eh     11.45 kcal/mol
-----------------------------------------------------------------------
Final entropy term                ...      0.02982099 Eh     18.71 kcal/mol

In case the symmetry of your molecule has not been determined correctly
or in case you have a reason to use a different symmetry number we print
out the resulting rotational entropy values for sn=1,12 :
 --------------------------------------------------------
|  sn= 1 | S(rot)=       0.01045576 Eh      6.56 kcal/mol|
|  sn= 2 | S(rot)=       0.00980130 Eh      6.15 kcal/mol|
|  sn= 3 | S(rot)=       0.00941847 Eh      5.91 kcal/mol|
|  sn= 4 | S(rot)=       0.00914685 Eh      5.74 kcal/mol|
|  sn= 5 | S(rot)=       0.00893616 Eh      5.61 kcal/mol|
|  sn= 6 | S(rot)=       0.00876402 Eh      5.50 kcal/mol|
|  sn= 7 | S(rot)=       0.00861847 Eh      5.41 kcal/mol|
|  sn= 8 | S(rot)=       0.00849239 Eh      5.33 kcal/mol|
|  sn= 9 | S(rot)=       0.00838118 Eh      5.26 kcal/mol|
|  sn=10 | S(rot)=       0.00828170 Eh      5.20 kcal/mol|
|  sn=11 | S(rot)=       0.00819171 Eh      5.14 kcal/mol|
|  sn=12 | S(rot)=       0.00810956 Eh      5.09 kcal/mol|
 --------------------------------------------------------

-------------------
GIBBS FREE ENERGY
-------------------

The Gibbs free energy is G = H - T*S

Total enthalpy                    ...   -546.33336844 Eh
Total entropy correction          ...     -0.02982099 Eh    -18.71 kcal/mol
-----------------------------------------------------------------------
Final Gibbs free energy         ...   -546.36318943 Eh

For completeness - the Gibbs free energy minus the electronic energy
G-E(el)                           ...     -0.01998085 Eh    -12.54 kcal/mol

                             ****ORCA TERMINATED NORMALLY****
TOTAL RUN TIME: 0 days 0 hours 2 minutes 13 seconds 761 msec
