                         Program Version 5.0.3 -  RELEASE  -
|  1> ! PAL5 PBE0 NumFreq
|  2> %method
|  3>         method DFT
|  4>         runtyp Energy
|  5> end
|  6> %basis
|  7>         basis "def2-TZVP"
|  8> end
|  9> %coords
| 10>         CTyp xyz
| 11>         Charge 0
| 12>         Mult 1
| 13>         Units Angs
| 14>         coords
| 15> 	#60
| 16> 	C     -1.011290    0.960957    0.000001
| 17> 	N     -1.587576    0.989457   -1.003037
| 18> 	H     -2.068270    1.013340    0.000003
| 19> 	end
| 20> end
| 21> %eprnmr
| 22>         NMRShielding 1
| 23>         Nuclei = all N {shift}
| 24>         Nuclei = all C {shift}
| 25>         Nuclei = all H {shift}
| 26> endd                         ****END OF INPUT****

CARTESIAN COORDINATES (ANGSTROEM)
---------------------------------
  C     -1.011290    0.960957    0.000001
  N     -1.587576    0.989457   -1.003037
  H     -2.068270    1.013340    0.000003

 Total Charge           Charge          ....    0
 Multiplicity           Mult            ....    1
 Number of Electrons    NEL             ....   14
 Basis Dimension        Dim             ....   68

ORBITAL ENERGIES
----------------

  NO   OCC          E(Eh)            E(eV)
   0   2.0000     -14.457799      -393.4167
   1   2.0000     -10.290681      -280.0237
   2   2.0000      -1.092942       -29.7405
   3   2.0000      -0.565982       -15.4012
   4   2.0000      -0.492233       -13.3943
   5   2.0000      -0.430748       -11.7213
   6   2.0000      -0.360149        -9.8001
   7   0.0000      -0.030573        -0.8319
   8   0.0000       0.007857         0.2138
   9   0.0000       0.072381         1.9696
  10   0.0000       0.166762         4.5378
  11   0.0000       0.205478         5.5913

MULLIKEN ATOMIC CHARGES
-----------------------
   0 C :   -0.238430
   1 N :    0.003061
   2 H :    0.235369
Sum of atomic charges:   -0.0000000

LOEWDIN ATOMIC CHARGES
----------------------
   0 C :   -0.272209
   1 N :    0.105046
   2 H :    0.167163

  Mayer bond orders larger than 0.100000
B(  0-C ,  1-N ) :   2.1512 B(  0-C ,  2-H ) :   0.5258 B(  1-N ,  2-H ) :   0.5072

FINAL SINGLE POINT ENERGY       -93.253567030042

DIPOLE MOMENT
-------------
                                X             Y             Z
Electronic contribution:      0.31825      -0.01579      -0.37527
Nuclear contribution   :     -0.67575       0.03352       0.48506
                        -----------------------------------------
Total Dipole Moment    :     -0.35750       0.01773       0.10979
                        -----------------------------------------
Magnitude (a.u.)       :      0.37440
Magnitude (Debye)      :      0.95165

CHEMICAL SHIELDING SUMMARY (ppm)
--------------------------------

  Nucleus  Element    Isotropic     Anisotropy
  -------  -------  ------------   ------------
      1       N          -98.042       -375.393
      0       C           13.702        401.618
      2       H           39.253         18.144

VIBRATIONAL FREQUENCIES
-----------------------

Scaling factor for frequencies =  1.000000000 (already applied!)

   0:         0.00 cm**-1
   1:         0.00 cm**-1
   2:         0.00 cm**-1
   3:         0.00 cm**-1
   4:         0.00 cm**-1
   5:         0.00 cm**-1
   6:       948.96 cm**-1
   7:      2232.20 cm**-1
   8:      3744.30 cm**-1

IR SPECTRUM
-----------

 Mode   freq       eps      Int      T**2         TX        TY        TZ
       cm**-1   L/(mol*cm) km/mol    a.u.
----------------------------------------------------------------------------
  6:    948.96   0.002530   12.78  0.000832  ( 0.004977 -0.000255  0.028409)
  7:   2232.20   0.003681   18.60  0.000515  (-0.022278  0.001111 -0.004142)
  8:   3744.30   0.029282  147.98  0.002440  (-0.038795  0.001949  0.030522)

--------------------------
THERMOCHEMISTRY AT 298.15K
--------------------------

Temperature         ... 298.15 K
Pressure            ... 1.00 atm
Total Mass          ... 27.03 AMU

Throughout the following assumptions are being made:
  (1) The electronic state is orbitally nondegenerate
  (2) There are no thermally accessible electronically excited states
  (3) Hindered rotations indicated by low frequency modes are not
      treated as such but are treated as vibrations and this may
      cause some error
  (4) All equations used are the standard statistical mechanics
      equations for an ideal gas
  (5) All vibrations are strictly harmonic

freq.     948.96  E(vib)   ...       0.03
freq.    2232.20  E(vib)   ...       0.00
freq.    3744.30  E(vib)   ...       0.00

------------
INNER ENERGY
------------

The inner energy is: U= E(el) + E(ZPE) + E(vib) + E(rot) + E(trans)
    E(el)   - is the total energy from the electronic structure calculation
              = E(kin-el) + E(nuc-el) + E(el-el) + E(nuc-nuc)
    E(ZPE)  - the the zero temperature vibrational energy from the frequency calculation
    E(vib)  - the the finite temperature correction to E(ZPE) due to population
              of excited vibrational states
    E(rot)  - is the rotational thermal energy
    E(trans)- is the translational thermal energy

Summary of contributions to the inner energy U:
Electronic energy                ...    -93.25356703 Eh
Zero point energy                ...      0.01577735 Eh       9.90 kcal/mol
Thermal vibrational correction   ...      0.00004505 Eh       0.03 kcal/mol
Thermal rotational correction    ...      0.00141627 Eh       0.89 kcal/mol
Thermal translational correction ...      0.00141627 Eh       0.89 kcal/mol
-----------------------------------------------------------------------
Total thermal energy                    -93.23491209 Eh

Summary of corrections to the electronic energy:
(perhaps to be used in another calculation)
Total thermal correction                  0.00287759 Eh       1.81 kcal/mol
Non-thermal (ZPE) correction              0.01577735 Eh       9.90 kcal/mol
-----------------------------------------------------------------------
Total correction                          0.01865494 Eh      11.71 kcal/mol

--------
ENTHALPY
--------

The enthalpy is H = U + kB*T
                kB is Boltzmann's constant
Total free energy                 ...    -93.23491209 Eh
Thermal Enthalpy correction       ...      0.00094421 Eh       0.59 kcal/mol
-----------------------------------------------------------------------
Total Enthalpy                    ...    -93.23396788 Eh

Note: Rotational entropy computed according to Herzberg
Infrared and Raman Spectra, Chapter V,1, Van Nostrand Reinhold, 1945
Point Group:  Cs, Symmetry Number:   1
Rotational constants in cm-1:    20.667060     1.944811     1.777541

Vibrational entropy computed according to the QRRHO of S. Grimme
Chem.Eur.J. 2012 18 9955

-------
ENTROPY
-------

The entropy contributions are T*S = T*(S(el)+S(vib)+S(rot)+S(trans))
     S(el)   - electronic entropy
     S(vib)  - vibrational entropy
     S(rot)  - rotational entropy
     S(trans)- translational entropy
The entropies will be listed as multiplied by the temperature to get
units of energy

Electronic entropy                ...      0.00000000 Eh      0.00 kcal/mol
Vibrational entropy               ...      0.00005483 Eh      0.03 kcal/mol
Rotational entropy                ...      0.00749549 Eh      4.70 kcal/mol
Translational entropy             ...      0.01701823 Eh     10.68 kcal/mol
-----------------------------------------------------------------------
Final entropy term                ...      0.02456855 Eh     15.42 kcal/mol

In case the symmetry of your molecule has not been determined correctly
or in case you have a reason to use a different symmetry number we print
out the resulting rotational entropy values for sn=1,12 :
 --------------------------------------------------------
|  sn= 1 | S(rot)=       0.00749549 Eh      4.70 kcal/mol|
|  sn= 2 | S(rot)=       0.00684103 Eh      4.29 kcal/mol|
|  sn= 3 | S(rot)=       0.00645820 Eh      4.05 kcal/mol|
|  sn= 4 | S(rot)=       0.00618657 Eh      3.88 kcal/mol|
|  sn= 5 | S(rot)=       0.00597589 Eh      3.75 kcal/mol|
|  sn= 6 | S(rot)=       0.00580374 Eh      3.64 kcal/mol|
|  sn= 7 | S(rot)=       0.00565819 Eh      3.55 kcal/mol|
|  sn= 8 | S(rot)=       0.00553212 Eh      3.47 kcal/mol|
|  sn= 9 | S(rot)=       0.00542091 Eh      3.40 kcal/mol|
|  sn=10 | S(rot)=       0.00532143 Eh      3.34 kcal/mol|
|  sn=11 | S(rot)=       0.00523144 Eh      3.28 kcal/mol|
|  sn=12 | S(rot)=       0.00514928 Eh      3.23 kcal/mol|
 --------------------------------------------------------

-------------------
GIBBS FREE ENERGY
-------------------

The Gibbs free energy is G = H - T*S

Total enthalpy                    ...    -93.23396788 Eh
Total entropy correction          ...     -0.02456855 Eh    -15.42 kcal/mol
-----------------------------------------------------------------------
Final Gibbs free energy         ...    -93.25853643 Eh

For completeness - the Gibbs free energy minus the electronic energy
G-E(el)                           ...     -0.00496940 Eh     -3.12 kcal/mol

                             ****ORCA TERMINATED NORMALLY****
TOTAL RUN TIME: 0 days 0 hours 1 minutes 5 seconds 908 msec
