                         Program Version 4.2.1 -  RELEASE  -
|  1> ! PAL5 PBE
|  2>
|  3> %method
|  4>         method DFT
|  5>         runtyp OPT
|  6> end
|  7>
|  8> %basis
|  9>         basis "def2-TZVP"
| 10> end
| 11> ! NumFreq
| 12>
| 13> %output
| 14>         XYZFile true
| 15> end
| 16> %coords
| 17>         CTyp xyz
| 18>         Charge 1
| 19>         Mult 2
| 20>         Units Angs
| 21>         coords
| 22>         S       -1.3964703605      0.5346218729     -0.0392481365
| 23> 	O        0.1725606238      0.5123737189     -0.0821591799
| 24> 	O       -1.9650463708      1.2081038033      1.2597276053
| 25>         end
| 26> endd                         ****END OF INPUT****
 Total Charge           Charge          ....    1
 Multiplicity           Mult            ....    2
 Number of Electrons    NEL             ....   31
FINAL SINGLE POINT ENERGY      -547.934641112239
FINAL SINGLE POINT ENERGY      -547.952209776224
FINAL SINGLE POINT ENERGY      -547.964678954986
FINAL SINGLE POINT ENERGY      -547.965485231114
FINAL SINGLE POINT ENERGY      -547.965655185210
FINAL SINGLE POINT ENERGY      -547.965664764051
                    ***********************HURRAY********************

CARTESIAN COORDINATES (ANGSTROEM)
---------------------------------
  S     -1.285247    0.607021    0.100391
  O      0.129906    0.471957   -0.160113
  O     -2.033615    1.176122    1.198043

 Multiplicity           Mult            ....    2
 Number of Electrons    NEL             ....   31
 Basis Dimension        Dim             ....   99

ORBITAL ENERGIES
----------------
                 SPIN UP ORBITALS
  NO   OCC          E(Eh)            E(eV)
   0   1.0000     -88.564875     -2409.9728
   1   1.0000     -19.176905      -521.8301
   2   1.0000     -19.176862      -521.8290
   3   1.0000      -8.171487      -222.3575
   4   1.0000      -6.192881      -168.5169
   5   1.0000      -6.189587      -168.4272
   6   1.0000      -6.189491      -168.4246
   7   1.0000      -1.394678       -37.9511
   8   1.0000      -1.321263       -35.9534
   9   1.0000      -0.912081       -24.8190
  10   1.0000      -0.782656       -21.2972
  11   1.0000      -0.768027       -20.8991
  12   1.0000      -0.766677       -20.8623
  13   1.0000      -0.671286       -18.2666
  14   1.0000      -0.662376       -18.0242
  15   1.0000      -0.627964       -17.0878
  16   0.0000      -0.479704       -13.0534
  17   0.0000      -0.351603        -9.5676
  18   0.0000      -0.228477        -6.2172
  19   0.0000      -0.069414        -1.8888
  20   0.0000      -0.061072        -1.6619

                 SPIN DOWN ORBITALS
  NO   OCC          E(Eh)            E(eV)
   0   1.0000     -88.563393     -2409.9325
   1   1.0000     -19.168221      -521.5938
   2   1.0000     -19.168179      -521.5927
   3   1.0000      -8.169545      -222.3046
   4   1.0000      -6.191195      -168.4710
   5   1.0000      -6.188306      -168.3924
   6   1.0000      -6.185711      -168.3218
   7   1.0000      -1.378389       -37.5079
   8   1.0000      -1.301856       -35.4253
   9   1.0000      -0.887615       -24.1532
  10   1.0000      -0.759860       -20.6768
  11   1.0000      -0.756546       -20.5867
  12   1.0000      -0.751211       -20.4415
  13   1.0000      -0.664011       -18.0687
  14   1.0000      -0.646702       -17.5977
  15   0.0000      -0.579840       -15.7782
  16   0.0000      -0.463469       -12.6116
  17   0.0000      -0.339267        -9.2319
  18   0.0000      -0.210854        -5.7376
  19   0.0000      -0.056319        -1.5325

MULLIKEN ATOMIC CHARGES AND SPIN POPULATIONS
--------------------------------------------
   0 S :    0.964344    0.341830
   1 O :    0.017629    0.329054
   2 O :    0.018027    0.329116
Sum of atomic charges         :    1.0000000

LOEWDIN ATOMIC CHARGES AND SPIN POPULATIONS
-------------------------------------------
   0 S :    0.919593    0.380484
   1 O :    0.040223    0.309719
   2 O :    0.040184    0.309798

  Mayer bond orders larger than 0.100000
B(  0-S ,  1-O ) :   2.0701 B(  0-S ,  2-O ) :   2.0705 B(  1-O ,  2-O ) :   0.3388

FINAL SINGLE POINT ENERGY      -547.965664763695

DIPOLE MOMENT
-------------
                                X             Y             Z
Electronic contribution:     -0.26446      -0.17236      -0.33226
Nuclear contribution   :      0.00976       0.00635       0.01225
                        -----------------------------------------
Total Dipole Moment    :     -0.25470      -0.16601      -0.32001
                        -----------------------------------------
Magnitude (a.u.)       :      0.44140
Magnitude (Debye)      :      1.12196

VIBRATIONAL FREQUENCIES
-----------------------

Scaling factor for frequencies =  1.000000000 (already applied!)

   0:         0.00 cm**-1
   1:         0.00 cm**-1
   2:         0.00 cm**-1
   3:         0.00 cm**-1
   4:         0.00 cm**-1
   5:         0.00 cm**-1
   6:       393.72 cm**-1
   7:      1057.80 cm**-1
   8:      1283.36 cm**-1

IR SPECTRUM
-----------

 Mode    freq (cm**-1)   T**2         TX         TY         TZ
-------------------------------------------------------------------
   6:       393.72   15.045888  (  2.265032   1.437162   2.801800)
   7:      1057.80    0.224004  ( -0.308044  -0.144592  -0.328946)
   8:      1283.36    9.441399  ( -2.516776   0.798198   1.571661)

--------------------------
THERMOCHEMISTRY AT 298.15K
--------------------------

Temperature         ... 298.15 K
Pressure            ... 1.00 atm
Total Mass          ... 64.06 AMU

Throughout the following assumptions are being made:
  (1) The electronic state is orbitally nondegenerate
      but the spin degeneracy is treated
  (2) There are no thermally accessible electronically excited states
  (3) Hindered rotations indicated by low frequency modes are not
      treated as such but are treated as vibrations and this may
      cause some error
  (4) All equations used are the standard statistical mechanics
      equations for an ideal gas
  (5) All vibrations are strictly harmonic

freq.     393.72  E(vib)   ...       0.20
freq.    1057.80  E(vib)   ...       0.02
freq.    1283.36  E(vib)   ...       0.01

------------
INNER ENERGY
------------

The inner energy is: U= E(el) + E(ZPE) + E(vib) + E(rot) + E(trans)
    E(el)   - is the total energy from the electronic structure calculation
              = E(kin-el) + E(nuc-el) + E(el-el) + E(nuc-nuc)
    E(ZPE)  - the the zero temperature vibrational energy from the frequency calculation
    E(vib)  - the the finite temperature correction to E(ZPE) due to population
              of excited vibrational states
    E(rot)  - is the rotational thermal energy
    E(trans)- is the translational thermal energy

Summary of contributions to the inner energy U:
Electronic energy                ...   -547.96566033 Eh
Zero point energy                ...      0.00623053 Eh       3.91 kcal/mol
Thermal vibrational correction   ...      0.00035694 Eh       0.22 kcal/mol
Thermal rotational correction    ...      0.00141627 Eh       0.89 kcal/mol
Thermal translational correction ...      0.00141627 Eh       0.89 kcal/mol
-----------------------------------------------------------------------
Total thermal energy                   -547.95624032 Eh

Summary of corrections to the electronic energy:
(perhaps to be used in another calculation)
Total thermal correction                  0.00318948 Eh       2.00 kcal/mol
Non-thermal (ZPE) correction              0.00623053 Eh       3.91 kcal/mol
-----------------------------------------------------------------------
Total correction                          0.00942001 Eh       5.91 kcal/mol

--------
ENTHALPY
--------

The enthalpy is H = U + kB*T
                kB is Boltzmann's constant
Total free energy                 ...   -547.95624032 Eh
Thermal Enthalpy correction       ...      0.00094421 Eh       0.59 kcal/mol
-----------------------------------------------------------------------
Total Enthalpy                    ...   -547.95529611 Eh

Note: Rotational entropy computed according to Herzberg
Infrared and Raman Spectra, Chapter V,1, Van Nostrand Reinhold, 1945
Point Group:  Cs, Symmetry Number:   1
Rotational constants in cm-1:     3.156827     0.300137     0.274079

Vibrational entropy computed according to the QRRHO of S. Grimme
Chem.Eur.J. 2012 18 9955

-------
ENTROPY
-------

The entropy contributions are T*S = T*(S(el)+S(vib)+S(rot)+S(trans))
     S(el)   - electronic entropy
     S(vib)  - vibrational entropy
     S(rot)  - rotational entropy
     S(trans)- translational entropy
The entropies will be listed as mutliplied by the temperature to get
units of energy

Electronic entropy                ...      0.00065446 Eh      0.41 kcal/mol
Vibrational entropy               ...      0.00051861 Eh      0.33 kcal/mol
Rotational entropy                ...      0.01014733 Eh      6.37 kcal/mol
Translational entropy             ...      0.01824046 Eh     11.45 kcal/mol
-----------------------------------------------------------------------
Final entropy term                ...      0.02956085 Eh     18.55 kcal/mol

In case the symmetry of your molecule has not been determined correctly
or in case you have a reason to use a different symmetry number we print
out the resulting rotational entropy values for sn=1,12 :
 --------------------------------------------------------
|  sn= 1 | S(rot)=       0.01014733 Eh      6.37 kcal/mol|
|  sn= 2 | S(rot)=       0.00949287 Eh      5.96 kcal/mol|
|  sn= 3 | S(rot)=       0.00911004 Eh      5.72 kcal/mol|
|  sn= 4 | S(rot)=       0.00883841 Eh      5.55 kcal/mol|
|  sn= 5 | S(rot)=       0.00862772 Eh      5.41 kcal/mol|
|  sn= 6 | S(rot)=       0.00845558 Eh      5.31 kcal/mol|
|  sn= 7 | S(rot)=       0.00831003 Eh      5.21 kcal/mol|
|  sn= 8 | S(rot)=       0.00818396 Eh      5.14 kcal/mol|
|  sn= 9 | S(rot)=       0.00807275 Eh      5.07 kcal/mol|
|  sn=10 | S(rot)=       0.00797327 Eh      5.00 kcal/mol|
|  sn=11 | S(rot)=       0.00788328 Eh      4.95 kcal/mol|
|  sn=12 | S(rot)=       0.00780112 Eh      4.90 kcal/mol|
 --------------------------------------------------------

-------------------
GIBBS FREE ENERGY
-------------------

The Gibbs free energy is G = H - T*S

Total enthalpy                    ...   -547.95529611 Eh
Total entropy correction          ...     -0.02956085 Eh    -18.55 kcal/mol
-----------------------------------------------------------------------
Final Gibbs free energy         ...   -547.98485696 Eh

For completeness - the Gibbs free energy minus the electronic energy
G-E(el)                           ...     -0.01919663 Eh    -12.05 kcal/mol

                             ****ORCA TERMINATED NORMALLY****
TOTAL RUN TIME: 0 days 0 hours 2 minutes 19 seconds 155 msec
