                         Program Version 5.0.3 -  RELEASE  -
|  1> ! PAL5 VWN
|  2> %method
|  3>         method DFT
|  4>         runtyp OPT
|  5> end
|  6>
|  7> %scf
|  8>        MaxIter 500
|  9> end
| 10> %geom
| 11>        MaxIter 500
| 12>        Convergence loose
| 13> end
| 14>
| 15> %basis
| 16>         basis "def2-SVP"
| 17> end
| 18> %output
| 19>         XYZFile true
| 20> end
| 21> %coords
| 22>         CTyp xyz
| 23>         Charge 0
| 24>         Mult 2
| 25>         Units Angs
| 26>         coords
| 27>         O      0.216214   -0.006219    1.965016
| 28> 	O      1.457860    1.465908    0.170578
| 29> 	O      1.461175   -1.657734    0.336658
| 30> 	O     -1.619033   -1.285334   -0.190267
| 31> 	O     -1.795432    1.335463   -0.018287
| 32> 	O     -0.178454   -0.282819   -2.151821
| 33> 	O      2.928865    0.033011    2.655076
| 34> 	Co     1.916410   -0.048912    1.128433
| 35> 	Mn    -0.107478   -0.107705    0.062356
| 36> 	O     -3.398012   -0.438743   -2.179417
| 37> 	Co    -1.827952    0.136125   -1.426456
| 38> 	H     -3.665118    0.296023   -2.786998
| 39> 	H      3.863775   -0.035801    2.336404
| 40>         end
| 41> endd                         ****END OF INPUT****
 Total Charge           Charge          ....    0
 Multiplicity           Mult            ....    2
 Number of Electrons    NEL             ....  145
FINAL SINGLE POINT ENERGY     -4506.824439622200
FINAL SINGLE POINT ENERGY     -4506.870089305640
FINAL SINGLE POINT ENERGY     -4506.916035437888
FINAL SINGLE POINT ENERGY     -4506.953428150475
FINAL SINGLE POINT ENERGY     -4506.979392815321
FINAL SINGLE POINT ENERGY     -4506.993354384799
FINAL SINGLE POINT ENERGY     -4507.000370198832
FINAL SINGLE POINT ENERGY     -4507.005481683131
FINAL SINGLE POINT ENERGY     -4507.010153172334
FINAL SINGLE POINT ENERGY     -4507.013354554928
FINAL SINGLE POINT ENERGY     -4507.018058194256
FINAL SINGLE POINT ENERGY     -4507.018121232571
FINAL SINGLE POINT ENERGY     -4507.018160248698
FINAL SINGLE POINT ENERGY     -4507.018196949649
FINAL SINGLE POINT ENERGY     -4507.018230541758
FINAL SINGLE POINT ENERGY     -4507.018260557523
FINAL SINGLE POINT ENERGY     -4507.018275471368
FINAL SINGLE POINT ENERGY     -4507.018290116823
FINAL SINGLE POINT ENERGY     -4507.018299878104
                    ***********************HURRAY********************

CARTESIAN COORDINATES (ANGSTROEM)
---------------------------------
  O      0.065393    0.097996    1.792496
  O      1.392022    1.105849    0.068635
  O      1.296867   -1.288935    0.228721
  O     -1.363305   -1.291916   -0.159010
  O     -1.472923    1.134311   -0.157483
  O     -0.238511   -0.033335   -1.855827
  O      2.861621   -0.012260    2.542385
  Co     1.714907   -0.021546    1.280418
  Mn    -0.086489   -0.076682    0.035174
  O     -3.308494   -0.377603   -2.088781
  Co    -1.829152   -0.073190   -1.297421
  H     -3.582231    0.303671   -2.745286
  H      3.803113   -0.063097    2.257254

 Multiplicity           Mult            ....    2
 Number of Electrons    NEL             ....  145
 Basis Dimension        Dim             ....  215

ORBITAL ENERGIES
----------------
                 SPIN UP ORBITALS
  NO   OCC          E(Eh)            E(eV)
   0   1.0000    -275.630381     -7500.2840
   1   1.0000    -275.630342     -7500.2829
   2   1.0000    -233.739977     -6360.3881
   3   1.0000     -32.433722      -882.5664
   4   1.0000     -32.433602      -882.5632
   5   1.0000     -28.228229      -768.1292
   6   1.0000     -28.228117      -768.1261
   7   1.0000     -28.220153      -767.9094
   8   1.0000     -28.219948      -767.9038
   9   1.0000     -28.214638      -767.7593
  10   1.0000     -28.214613      -767.7587
  11   1.0000     -26.957716      -733.5567
  12   1.0000     -23.170850      -630.5109
  13   1.0000     -23.170111      -630.4908
  14   1.0000     -23.162825      -630.2925
  15   1.0000     -18.694545      -508.7044
  16   1.0000     -18.694315      -508.6982
  17   1.0000     -18.682895      -508.3874
  18   1.0000     -18.682750      -508.3835
  19   1.0000     -18.681076      -508.3379
  20   1.0000     -18.680566      -508.3240
  21   1.0000     -18.672284      -508.0987
  22   1.0000     -18.672237      -508.0974
  23   1.0000      -3.667116       -99.7873
  24   1.0000      -3.666977       -99.7835
  25   1.0000      -3.124606       -85.0249
  26   1.0000      -2.426061       -66.0165
  27   1.0000      -2.425715       -66.0071
  28   1.0000      -2.401730       -65.3544
  29   1.0000      -2.401399       -65.3454
  30   1.0000      -2.393173       -65.1215
  31   1.0000      -2.393083       -65.1191
  32   1.0000      -2.045296       -55.6553
  33   1.0000      -2.040023       -55.5119
  34   1.0000      -2.039427       -55.4956
  35   1.0000      -0.926746       -25.2180
  36   1.0000      -0.920584       -25.0504
  37   1.0000      -0.910008       -24.7626
  38   1.0000      -0.888829       -24.1863
  39   1.0000      -0.875660       -23.8279
  40   1.0000      -0.875400       -23.8208
  41   1.0000      -0.864173       -23.5153
  42   1.0000      -0.863235       -23.4898
  43   1.0000      -0.508442       -13.8354
  44   1.0000      -0.502473       -13.6730
  45   1.0000      -0.467083       -12.7100
  46   1.0000      -0.449922       -12.2430
  47   1.0000      -0.446756       -12.1568
  48   1.0000      -0.436645       -11.8817
  49   1.0000      -0.435287       -11.8448
  50   1.0000      -0.429570       -11.6892
  51   1.0000      -0.428948       -11.6723
  52   1.0000      -0.424201       -11.5431
  53   1.0000      -0.421177       -11.4608
  54   1.0000      -0.408657       -11.1201
  55   1.0000      -0.401482       -10.9249
  56   1.0000      -0.391469       -10.6524
  57   1.0000      -0.384924       -10.4743
  58   1.0000      -0.377699       -10.2777
  59   1.0000      -0.366399        -9.9702
  60   1.0000      -0.354495        -9.6463
  61   1.0000      -0.344746        -9.3810
  62   1.0000      -0.340223        -9.2579
  63   1.0000      -0.316975        -8.6253
  64   1.0000      -0.311003        -8.4628
  65   1.0000      -0.292820        -7.9680
  66   1.0000      -0.291721        -7.9381
  67   1.0000      -0.286115        -7.7856
  68   1.0000      -0.277217        -7.5435
  69   1.0000      -0.272645        -7.4190
  70   1.0000      -0.259174        -7.0525
  71   1.0000      -0.257890        -7.0176
  72   1.0000      -0.236500        -6.4355
  73   0.0000      -0.227780        -6.1982
  74   0.0000      -0.224905        -6.1200
  75   0.0000      -0.214593        -5.8394
  76   0.0000      -0.209945        -5.7129
  77   0.0000      -0.202756        -5.5173

                 SPIN DOWN ORBITALS
  NO   OCC          E(Eh)            E(eV)
   0   1.0000    -275.630342     -7500.2829
   1   1.0000    -275.630307     -7500.2820
   2   1.0000    -233.739714     -6360.3810
   3   1.0000     -32.433243      -882.5534
   4   1.0000     -32.433188      -882.5519
   5   1.0000     -28.227284      -768.1034
   6   1.0000     -28.227230      -768.1020
   7   1.0000     -28.220602      -767.9216
   8   1.0000     -28.220550      -767.9202
   9   1.0000     -28.213991      -767.7417
  10   1.0000     -28.213913      -767.7396
  11   1.0000     -26.943995      -733.1834
  12   1.0000     -23.160537      -630.2303
  13   1.0000     -23.157796      -630.1557
  14   1.0000     -23.153649      -630.0428
  15   1.0000     -18.694569      -508.7051
  16   1.0000     -18.694289      -508.6975
  17   1.0000     -18.681154      -508.3401
  18   1.0000     -18.680948      -508.3344
  19   1.0000     -18.680617      -508.3254
  20   1.0000     -18.680126      -508.3121
  21   1.0000     -18.671428      -508.0754
  22   1.0000     -18.671302      -508.0719
  23   1.0000      -3.666284       -99.7647
  24   1.0000      -3.666111       -99.7600
  25   1.0000      -3.094762       -84.2128
  26   1.0000      -2.423695       -65.9521
  27   1.0000      -2.423274       -65.9406
  28   1.0000      -2.403030       -65.3898
  29   1.0000      -2.403009       -65.3892
  30   1.0000      -2.391715       -65.0819
  31   1.0000      -2.391513       -65.0764
  32   1.0000      -2.025661       -55.1210
  33   1.0000      -2.006555       -54.6011
  34   1.0000      -2.006185       -54.5911
  35   1.0000      -0.925257       -25.1775
  36   1.0000      -0.919092       -25.0098
  37   1.0000      -0.908570       -24.7235
  38   1.0000      -0.887857       -24.1598
  39   1.0000      -0.874100       -23.7855
  40   1.0000      -0.872811       -23.7504
  41   1.0000      -0.863153       -23.4876
  42   1.0000      -0.860844       -23.4248
  43   1.0000      -0.506943       -13.7946
  44   1.0000      -0.501935       -13.6583
  45   1.0000      -0.462701       -12.5907
  46   1.0000      -0.446661       -12.1543
  47   1.0000      -0.440517       -11.9871
  48   1.0000      -0.433664       -11.8006
  49   1.0000      -0.432933       -11.7807
  50   1.0000      -0.425954       -11.5908
  51   1.0000      -0.423607       -11.5269
  52   1.0000      -0.421300       -11.4642
  53   1.0000      -0.419318       -11.4102
  54   1.0000      -0.407958       -11.1011
  55   1.0000      -0.399288       -10.8652
  56   1.0000      -0.387580       -10.5466
  57   1.0000      -0.381048       -10.3688
  58   1.0000      -0.374649       -10.1947
  59   1.0000      -0.362995        -9.8776
  60   1.0000      -0.351444        -9.5633
  61   1.0000      -0.342608        -9.3228
  62   1.0000      -0.339445        -9.2368
  63   1.0000      -0.315489        -8.5849
  64   1.0000      -0.309858        -8.4317
  65   1.0000      -0.288072        -7.8388
  66   1.0000      -0.281533        -7.6609
  67   1.0000      -0.278104        -7.5676
  68   1.0000      -0.273541        -7.4434
  69   1.0000      -0.271227        -7.3805
  70   1.0000      -0.257840        -7.0162
  71   1.0000      -0.257281        -7.0010
  72   0.0000      -0.226395        -6.1605
  73   0.0000      -0.215647        -5.8681
  74   0.0000      -0.211330        -5.7506
  75   0.0000      -0.210388        -5.7250
  76   0.0000      -0.205781        -5.5996

MULLIKEN ATOMIC CHARGES AND SPIN POPULATIONS
--------------------------------------------
   0 O :   -0.228853   -0.004184
   1 O :   -0.252915    0.009284
   2 O :   -0.256173    0.062761
   3 O :   -0.228518   -0.002104
   4 O :   -0.256382    0.058530
   5 O :   -0.253086    0.009485
   6 O :   -0.338515    0.033031
   7 Co:    0.525805    0.018548
   8 Mn:    0.623015    0.756599
   9 O :   -0.337811    0.036054
  10 Co:    0.526147    0.025687
  11 H :    0.238450   -0.001867
  12 H :    0.238836   -0.001826
Sum of atomic charges         :    0.0000000

LOEWDIN ATOMIC CHARGES AND SPIN POPULATIONS
-------------------------------------------
   0 O :   -0.055229   -0.000869
   1 O :   -0.107663    0.011359
   2 O :   -0.102809    0.064336
   3 O :   -0.055363    0.001173
   4 O :   -0.102886    0.060222
   5 O :   -0.109151    0.011540
   6 O :   -0.126546    0.031835
   7 Co:    0.226969    0.018979
   8 Mn:    0.102630    0.741971
   9 O :   -0.126158    0.034782
  10 Co:    0.226715    0.026007
  11 H :    0.114594   -0.000648
  12 H :    0.114895   -0.000687

  Mayer bond orders larger than 0.100000
B(  0-O ,  7-Co) :   1.0340 B(  0-O ,  8-Mn) :   0.9509 B(  1-O ,  7-Co) :   1.1659
B(  1-O ,  8-Mn) :   0.7416 B(  2-O ,  6-O ) :   0.1055 B(  2-O ,  7-Co) :   1.1338
B(  2-O ,  8-Mn) :   0.7860 B(  3-O ,  8-Mn) :   0.9492 B(  3-O , 10-Co) :   1.0355
B(  4-O ,  8-Mn) :   0.7822 B(  4-O ,  9-O ) :   0.1061 B(  4-O , 10-Co) :   1.1372
B(  5-O ,  8-Mn) :   0.7385 B(  5-O , 10-Co) :   1.1658 B(  6-O ,  7-Co) :   1.0347
B(  6-O ,  8-Mn) :   0.1237 B(  6-O , 12-H ) :   0.9171 B(  7-Co,  8-Mn) :   0.5757
B(  8-Mn,  9-O ) :   0.1222 B(  8-Mn, 10-Co) :   0.5733 B(  9-O , 10-Co) :   1.0340
B(  9-O , 11-H ) :   0.9173

FINAL SINGLE POINT ENERGY     -4507.018308541245

DIPOLE MOMENT
-------------
                                X             Y             Z
Electronic contribution:      0.21641       0.18125      -0.30044
Nuclear contribution   :      0.20147       0.21651      -0.28723
                        -----------------------------------------
Total Dipole Moment    :      0.41789       0.39776      -0.58767
                        -----------------------------------------
Magnitude (a.u.)       :      0.82353
Magnitude (Debye)      :      2.09324

Rotational constants in cm-1:     0.088988     0.012806     0.012803
Rotational constants in MHz :  2667.783146   383.915480   383.819993

                             ****ORCA TERMINATED NORMALLY****
TOTAL RUN TIME: 0 days 0 hours 10 minutes 4 seconds 904 msec
