                         Program Version 5.0.3 -  RELEASE  -
|  1> ! PAL5 VWN
|  2> %method
|  3>         method DFT
|  4>         runtyp OPT
|  5> end
|  6>
|  7> %scf
|  8>        MaxIter 500
|  9> end
| 10> %geom
| 11>        MaxIter 500
| 12>        Convergence loose
| 13> end
| 14>
| 15> %basis
| 16>         basis "def2-SVP"
| 17> end
| 18> ! NumFreq
| 19> %elprop
| 20>         Polar 1
| 21> end
| 22> %output
| 23>         XYZFile true
| 24> end
| 25> %coords
| 26>         CTyp xyz
| 27>         Charge 0
| 28>         Mult 2
| 29>         Units Angs
| 30>         coords
| 31>         O      0.216214   -0.006219    1.965016
| 32> 	O      1.457860    1.465908    0.170578
| 33> 	O      1.461175   -1.657734    0.336658
| 34> 	O     -1.619033   -1.285334   -0.190267
| 35> 	O     -1.795432    1.335463   -0.018287
| 36> 	O     -0.178454   -0.282819   -2.151821
| 37> 	O      2.928865    0.033011    2.655076
| 38> 	Co     1.916410   -0.048912    1.128433
| 39> 	Mn    -0.107478   -0.107705    0.062356
| 40> 	O     -3.398012   -0.438743   -2.179417
| 41> 	Co    -1.827952    0.136125   -1.426456
| 42> 	H     -3.665118    0.296023   -2.786998
| 43> 	H      3.863775   -0.035801    2.336404
| 44>         end
| 45> endd                         ****END OF INPUT****
 Total Charge           Charge          ....    0
 Multiplicity           Mult            ....    2
 Number of Electrons    NEL             ....  145
FINAL SINGLE POINT ENERGY     -4506.824439529717
FINAL SINGLE POINT ENERGY     -4506.870089743461
FINAL SINGLE POINT ENERGY     -4506.916035815600
FINAL SINGLE POINT ENERGY     -4506.953428479015
FINAL SINGLE POINT ENERGY     -4506.979393037600
FINAL SINGLE POINT ENERGY     -4506.993354465914
FINAL SINGLE POINT ENERGY     -4507.000370165611
FINAL SINGLE POINT ENERGY     -4507.005481612024
FINAL SINGLE POINT ENERGY     -4507.010153056967
FINAL SINGLE POINT ENERGY     -4507.013354480933
FINAL SINGLE POINT ENERGY     -4507.018058111610
FINAL SINGLE POINT ENERGY     -4507.018121228993
FINAL SINGLE POINT ENERGY     -4507.018160214193
FINAL SINGLE POINT ENERGY     -4507.018196916530
FINAL SINGLE POINT ENERGY     -4507.018230511495
FINAL SINGLE POINT ENERGY     -4507.018260545250
FINAL SINGLE POINT ENERGY     -4507.018275441737
FINAL SINGLE POINT ENERGY     -4507.018290102225
FINAL SINGLE POINT ENERGY     -4507.018299856320
                    ***********************HURRAY********************

CARTESIAN COORDINATES (ANGSTROEM)
---------------------------------
  O      0.065394    0.097998    1.792491
  O      1.392023    1.105851    0.068629
  O      1.296871   -1.288934    0.228723
  O     -1.363301   -1.291917   -0.159011
  O     -1.472927    1.134310   -0.157485
  O     -0.238510   -0.033335   -1.855828
  O      2.861616   -0.012260    2.542389
  Co     1.714911   -0.021541    1.280413
  Mn    -0.086486   -0.076680    0.035171
  O     -3.308495   -0.377605   -2.088777
  Co    -1.829150   -0.073191   -1.297424
  H     -3.582235    0.303672   -2.745277
  H      3.803109   -0.063106    2.257261

 Multiplicity           Mult            ....    2
 Number of Electrons    NEL             ....  145
 Basis Dimension        Dim             ....  215

ORBITAL ENERGIES
----------------
                 SPIN UP ORBITALS
  NO   OCC          E(Eh)            E(eV)
   0   1.0000    -275.630380     -7500.2840
   1   1.0000    -275.630341     -7500.2829
   2   1.0000    -233.739977     -6360.3881
   3   1.0000     -32.433721      -882.5664
   4   1.0000     -32.433601      -882.5632
   5   1.0000     -28.228229      -768.1292
   6   1.0000     -28.228116      -768.1261
   7   1.0000     -28.220153      -767.9094
   8   1.0000     -28.219947      -767.9038
   9   1.0000     -28.214637      -767.7593
  10   1.0000     -28.214613      -767.7587
  11   1.0000     -26.957715      -733.5567
  12   1.0000     -23.170849      -630.5109
  13   1.0000     -23.170111      -630.4908
  14   1.0000     -23.162825      -630.2925
  15   1.0000     -18.694545      -508.7044
  16   1.0000     -18.694315      -508.6982
  17   1.0000     -18.682895      -508.3874
  18   1.0000     -18.682749      -508.3834
  19   1.0000     -18.681076      -508.3379
  20   1.0000     -18.680565      -508.3240
  21   1.0000     -18.672284      -508.0987
  22   1.0000     -18.672237      -508.0974
  23   1.0000      -3.667115       -99.7873
  24   1.0000      -3.666977       -99.7835
  25   1.0000      -3.124606       -85.0249
  26   1.0000      -2.426061       -66.0165
  27   1.0000      -2.425715       -66.0071
  28   1.0000      -2.401730       -65.3544
  29   1.0000      -2.401400       -65.3454
  30   1.0000      -2.393172       -65.1215
  31   1.0000      -2.393082       -65.1191
  32   1.0000      -2.045296       -55.6553
  33   1.0000      -2.040023       -55.5118
  34   1.0000      -2.039426       -55.4956
  35   1.0000      -0.926746       -25.2180
  36   1.0000      -0.920584       -25.0504
  37   1.0000      -0.910008       -24.7626
  38   1.0000      -0.888828       -24.1863
  39   1.0000      -0.875660       -23.8279
  40   1.0000      -0.875399       -23.8208
  41   1.0000      -0.864173       -23.5153
  42   1.0000      -0.863235       -23.4898
  43   1.0000      -0.508441       -13.8354
  44   1.0000      -0.502473       -13.6730
  45   1.0000      -0.467083       -12.7100
  46   1.0000      -0.449922       -12.2430
  47   1.0000      -0.446756       -12.1568
  48   1.0000      -0.436644       -11.8817
  49   1.0000      -0.435287       -11.8448
  50   1.0000      -0.429570       -11.6892
  51   1.0000      -0.428948       -11.6723
  52   1.0000      -0.424201       -11.5431
  53   1.0000      -0.421177       -11.4608
  54   1.0000      -0.408657       -11.1201
  55   1.0000      -0.401481       -10.9249
  56   1.0000      -0.391469       -10.6524
  57   1.0000      -0.384924       -10.4743
  58   1.0000      -0.377699       -10.2777
  59   1.0000      -0.366399        -9.9702
  60   1.0000      -0.354495        -9.6463
  61   1.0000      -0.344746        -9.3810
  62   1.0000      -0.340223        -9.2579
  63   1.0000      -0.316975        -8.6253
  64   1.0000      -0.311003        -8.4628
  65   1.0000      -0.292820        -7.9680
  66   1.0000      -0.291721        -7.9381
  67   1.0000      -0.286115        -7.7856
  68   1.0000      -0.277217        -7.5435
  69   1.0000      -0.272645        -7.4190
  70   1.0000      -0.259174        -7.0525
  71   1.0000      -0.257890        -7.0175
  72   1.0000      -0.236500        -6.4355
  73   0.0000      -0.227780        -6.1982
  74   0.0000      -0.224905        -6.1200
  75   0.0000      -0.214593        -5.8394
  76   0.0000      -0.209945        -5.7129
  77   0.0000      -0.202756        -5.5173

                 SPIN DOWN ORBITALS
  NO   OCC          E(Eh)            E(eV)
   0   1.0000    -275.630342     -7500.2829
   1   1.0000    -275.630306     -7500.2819
   2   1.0000    -233.739713     -6360.3810
   3   1.0000     -32.433242      -882.5534
   4   1.0000     -32.433187      -882.5519
   5   1.0000     -28.227283      -768.1034
   6   1.0000     -28.227230      -768.1020
   7   1.0000     -28.220602      -767.9216
   8   1.0000     -28.220550      -767.9202
   9   1.0000     -28.213990      -767.7417
  10   1.0000     -28.213913      -767.7396
  11   1.0000     -26.943995      -733.1834
  12   1.0000     -23.160537      -630.2303
  13   1.0000     -23.157795      -630.1556
  14   1.0000     -23.153649      -630.0428
  15   1.0000     -18.694569      -508.7051
  16   1.0000     -18.694289      -508.6975
  17   1.0000     -18.681155      -508.3401
  18   1.0000     -18.680946      -508.3344
  19   1.0000     -18.680617      -508.3254
  20   1.0000     -18.680125      -508.3120
  21   1.0000     -18.671428      -508.0754
  22   1.0000     -18.671301      -508.0719
  23   1.0000      -3.666283       -99.7646
  24   1.0000      -3.666111       -99.7600
  25   1.0000      -3.094762       -84.2128
  26   1.0000      -2.423694       -65.9521
  27   1.0000      -2.423274       -65.9406
  28   1.0000      -2.403029       -65.3897
  29   1.0000      -2.403010       -65.3892
  30   1.0000      -2.391714       -65.0818
  31   1.0000      -2.391513       -65.0764
  32   1.0000      -2.025661       -55.1210
  33   1.0000      -2.006554       -54.6011
  34   1.0000      -2.006184       -54.5910
  35   1.0000      -0.925257       -25.1775
  36   1.0000      -0.919092       -25.0098
  37   1.0000      -0.908570       -24.7234
  38   1.0000      -0.887857       -24.1598
  39   1.0000      -0.874100       -23.7855
  40   1.0000      -0.872810       -23.7504
  41   1.0000      -0.863153       -23.4876
  42   1.0000      -0.860845       -23.4248
  43   1.0000      -0.506942       -13.7946
  44   1.0000      -0.501935       -13.6583
  45   1.0000      -0.462701       -12.5907
  46   1.0000      -0.446661       -12.1543
  47   1.0000      -0.440517       -11.9871
  48   1.0000      -0.433664       -11.8006
  49   1.0000      -0.432933       -11.7807
  50   1.0000      -0.425954       -11.5908
  51   1.0000      -0.423607       -11.5269
  52   1.0000      -0.421300       -11.4642
  53   1.0000      -0.419317       -11.4102
  54   1.0000      -0.407958       -11.1011
  55   1.0000      -0.399288       -10.8652
  56   1.0000      -0.387580       -10.5466
  57   1.0000      -0.381048       -10.3688
  58   1.0000      -0.374649       -10.1947
  59   1.0000      -0.362995        -9.8776
  60   1.0000      -0.351444        -9.5633
  61   1.0000      -0.342607        -9.3228
  62   1.0000      -0.339445        -9.2368
  63   1.0000      -0.315489        -8.5849
  64   1.0000      -0.309858        -8.4317
  65   1.0000      -0.288072        -7.8388
  66   1.0000      -0.281533        -7.6609
  67   1.0000      -0.278104        -7.5676
  68   1.0000      -0.273541        -7.4434
  69   1.0000      -0.271227        -7.3805
  70   1.0000      -0.257840        -7.0162
  71   1.0000      -0.257281        -7.0010
  72   0.0000      -0.226395        -6.1605
  73   0.0000      -0.215647        -5.8681
  74   0.0000      -0.211330        -5.7506
  75   0.0000      -0.210388        -5.7250
  76   0.0000      -0.205780        -5.5996

MULLIKEN ATOMIC CHARGES AND SPIN POPULATIONS
--------------------------------------------
   0 O :   -0.228852   -0.004178
   1 O :   -0.252915    0.009281
   2 O :   -0.256174    0.062757
   3 O :   -0.228518   -0.002102
   4 O :   -0.256381    0.058527
   5 O :   -0.253087    0.009479
   6 O :   -0.338514    0.033034
   7 Co:    0.525805    0.018563
   8 Mn:    0.623015    0.756599
   9 O :   -0.337810    0.036055
  10 Co:    0.526146    0.025679
  11 H :    0.238450   -0.001867
  12 H :    0.238837   -0.001826
Sum of atomic charges         :   -0.0000000

LOEWDIN ATOMIC CHARGES AND SPIN POPULATIONS
-------------------------------------------
   0 O :   -0.055229   -0.000862
   1 O :   -0.107663    0.011357
   2 O :   -0.102810    0.064332
   3 O :   -0.055363    0.001175
   4 O :   -0.102885    0.060218
   5 O :   -0.109151    0.011534
   6 O :   -0.126546    0.031839
   7 Co:    0.226969    0.018993
   8 Mn:    0.102630    0.741971
   9 O :   -0.126157    0.034782
  10 Co:    0.226715    0.025998
  11 H :    0.114594   -0.000648
  12 H :    0.114895   -0.000687

  Mayer bond orders larger than 0.100000
B(  0-O ,  7-Co) :   1.0340 B(  0-O ,  8-Mn) :   0.9509 B(  1-O ,  7-Co) :   1.1659
B(  1-O ,  8-Mn) :   0.7416 B(  2-O ,  6-O ) :   0.1055 B(  2-O ,  7-Co) :   1.1338
B(  2-O ,  8-Mn) :   0.7860 B(  3-O ,  8-Mn) :   0.9492 B(  3-O , 10-Co) :   1.0355
B(  4-O ,  8-Mn) :   0.7822 B(  4-O ,  9-O ) :   0.1061 B(  4-O , 10-Co) :   1.1372
B(  5-O ,  8-Mn) :   0.7385 B(  5-O , 10-Co) :   1.1658 B(  6-O ,  7-Co) :   1.0347
B(  6-O ,  8-Mn) :   0.1237 B(  6-O , 12-H ) :   0.9171 B(  7-Co,  8-Mn) :   0.5757
B(  8-Mn,  9-O ) :   0.1222 B(  8-Mn, 10-Co) :   0.5733 B(  9-O , 10-Co) :   1.0340
B(  9-O , 11-H ) :   0.9173

FINAL SINGLE POINT ENERGY     -4507.018308516430

DIPOLE MOMENT
-------------
                                X             Y             Z
Electronic contribution:      0.21644       0.18128      -0.30047
Nuclear contribution   :      0.20145       0.21649      -0.28719
                        -----------------------------------------
Total Dipole Moment    :      0.41789       0.39777      -0.58766
                        -----------------------------------------
Magnitude (a.u.)       :      0.82353
Magnitude (Debye)      :      2.09324

VIBRATIONAL FREQUENCIES
-----------------------

Scaling factor for frequencies =  1.000000000 (already applied!)

   0:         0.00 cm**-1
   1:         0.00 cm**-1
   2:         0.00 cm**-1
   3:         0.00 cm**-1
   4:         0.00 cm**-1
   5:         0.00 cm**-1
   6:        46.32 cm**-1
   7:        47.14 cm**-1
   8:        54.47 cm**-1
   9:        88.97 cm**-1
  10:        97.09 cm**-1
  11:       144.27 cm**-1
  12:       165.60 cm**-1
  13:       197.01 cm**-1
  14:       245.52 cm**-1
  15:       263.52 cm**-1
  16:       265.81 cm**-1
  17:       285.36 cm**-1
  18:       314.21 cm**-1
  19:       328.80 cm**-1
  20:       370.20 cm**-1
  21:       374.24 cm**-1
  22:       400.01 cm**-1
  23:       430.73 cm**-1
  24:       432.53 cm**-1
  25:       446.09 cm**-1
  26:       459.54 cm**-1
  27:       696.53 cm**-1
  28:       714.65 cm**-1
  29:       716.04 cm**-1
  30:       724.90 cm**-1
  31:       727.78 cm**-1
  32:       744.25 cm**-1
  33:       759.82 cm**-1
  34:       765.69 cm**-1
  35:       835.38 cm**-1
  36:       842.26 cm**-1
  37:      3630.09 cm**-1
  38:      3632.71 cm**-1

IR SPECTRUM
-----------

 Mode   freq       eps      Int      T**2         TX        TY        TZ
       cm**-1   L/(mol*cm) km/mol    a.u.
----------------------------------------------------------------------------
  6:     46.32   0.000222    1.12  0.001496  ( 0.015087 -0.009094 -0.034430)
  7:     47.14   0.000043    0.22  0.000284  ( 0.004244 -0.003120 -0.015997)
  8:     54.47   0.000443    2.24  0.002538  ( 0.007847  0.049755 -0.001116)
  9:     88.97   0.001124    5.68  0.003943  ( 0.003134 -0.062688  0.001935)
 10:     97.09   0.001199    6.06  0.003853  ( 0.034723 -0.017369 -0.048433)
 11:    144.27   0.000830    4.19  0.001794  ( 0.006101  0.033770  0.024836)
 12:    165.60   0.000108    0.55  0.000204  ( 0.004874  0.005864 -0.012089)
 13:    197.01   0.001079    5.45  0.001709  (-0.029347 -0.003046 -0.028951)
 14:    245.52   0.004023   20.33  0.005114  ( 0.043979  0.034746  0.044408)
 15:    263.52   0.002013   10.17  0.002383  (-0.022789 -0.018918  0.038809)
 16:    265.81   0.000336    1.70  0.000395  (-0.002541 -0.002991  0.019475)
 17:    285.36   0.000384    1.94  0.000420  (-0.012279 -0.005262  0.015530)
 18:    314.21   0.008827   44.61  0.008767  (-0.046804  0.079981  0.013402)
 19:    328.80   0.005505   27.82  0.005225  (-0.038275 -0.030633  0.053120)
 20:    370.20   0.000568    2.87  0.000479  (-0.016801  0.009842  0.009998)
 21:    374.24   0.002140   10.82  0.001785  (-0.018012 -0.023345  0.030252)
 22:    400.01   0.002193   11.08  0.001711  ( 0.019696  0.024114  0.027232)
 23:    430.73   0.003516   17.77  0.002547  ( 0.017920  0.046347 -0.008833)
 24:    432.53   0.007021   35.48  0.005065  ( 0.025925 -0.032453 -0.057792)
 25:    446.09   0.018327   92.62  0.012820  (-0.025624  0.105561  0.031947)
 26:    459.54   0.004451   22.49  0.003023  ( 0.031816  0.017063 -0.041463)
 27:    696.53   0.024129  121.94  0.010810  (-0.064431 -0.037970 -0.072231)
 28:    714.65   0.044007  222.39  0.019216  ( 0.100203  0.011209  0.095132)
 29:    716.04   0.009388   47.44  0.004092  (-0.059213 -0.021363 -0.011358)
 30:    724.90   0.045072  227.78  0.019403  (-0.108860 -0.007860 -0.086551)
 31:    727.78   0.005638   28.49  0.002418  ( 0.028245  0.023664 -0.032555)
 32:    744.25   0.000641    3.24  0.000269  (-0.008142 -0.007821  0.011882)
 33:    759.82   0.007911   39.98  0.003249  (-0.030516 -0.024631  0.041369)
 34:    765.69   0.008544   43.18  0.003482  (-0.015617  0.053096  0.020467)
 35:    835.38   0.000686    3.47  0.000256  ( 0.010084  0.007732 -0.009745)
 36:    842.26   0.005643   28.52  0.002091  ( 0.035543  0.004089  0.028474)
 37:   3630.09   0.124916  631.27  0.010738  ( 0.091266 -0.009484  0.048157)
 38:   3632.71   0.018190   91.93  0.001563  (-0.014458  0.015581 -0.033329)

--------------------------
THERMOCHEMISTRY AT 298.15K
--------------------------

Temperature         ... 298.15 K
Pressure            ... 1.00 atm
Total Mass          ... 302.81 AMU

Throughout the following assumptions are being made:
  (1) The electronic state is orbitally nondegenerate
      but the spin degeneracy is treated
  (2) There are no thermally accessible electronically excited states
  (3) Hindered rotations indicated by low frequency modes are not
      treated as such but are treated as vibrations and this may
      cause some error
  (4) All equations used are the standard statistical mechanics
      equations for an ideal gas
  (5) All vibrations are strictly harmonic

freq.      46.32  E(vib)   ...       0.53
freq.      47.14  E(vib)   ...       0.53
freq.      54.47  E(vib)   ...       0.52
freq.      88.97  E(vib)   ...       0.47
freq.      97.09  E(vib)   ...       0.46
freq.     144.27  E(vib)   ...       0.41
freq.     165.60  E(vib)   ...       0.39
freq.     197.01  E(vib)   ...       0.35
freq.     245.52  E(vib)   ...       0.31
freq.     263.52  E(vib)   ...       0.29
freq.     265.81  E(vib)   ...       0.29
freq.     285.36  E(vib)   ...       0.28
freq.     314.21  E(vib)   ...       0.25
freq.     328.80  E(vib)   ...       0.24
freq.     370.20  E(vib)   ...       0.21
freq.     374.24  E(vib)   ...       0.21
freq.     400.01  E(vib)   ...       0.19
freq.     430.73  E(vib)   ...       0.18
freq.     432.53  E(vib)   ...       0.18
freq.     446.09  E(vib)   ...       0.17
freq.     459.54  E(vib)   ...       0.16
freq.     696.53  E(vib)   ...       0.07
freq.     714.65  E(vib)   ...       0.07
freq.     716.04  E(vib)   ...       0.07
freq.     724.90  E(vib)   ...       0.06
freq.     727.78  E(vib)   ...       0.06
freq.     744.25  E(vib)   ...       0.06
freq.     759.82  E(vib)   ...       0.06
freq.     765.69  E(vib)   ...       0.06
freq.     835.38  E(vib)   ...       0.04
freq.     842.26  E(vib)   ...       0.04
freq.    3630.09  E(vib)   ...       0.00
freq.    3632.71  E(vib)   ...       0.00

------------
INNER ENERGY
------------

The inner energy is: U= E(el) + E(ZPE) + E(vib) + E(rot) + E(trans)
    E(el)   - is the total energy from the electronic structure calculation
              = E(kin-el) + E(nuc-el) + E(el-el) + E(nuc-nuc)
    E(ZPE)  - the the zero temperature vibrational energy from the frequency calculation
    E(vib)  - the the finite temperature correction to E(ZPE) due to population
              of excited vibrational states
    E(rot)  - is the rotational thermal energy
    E(trans)- is the translational thermal energy

Summary of contributions to the inner energy U:
Electronic energy                ...  -4507.01830854 Eh
Zero point energy                ...      0.04612723 Eh      28.95 kcal/mol
Thermal vibrational correction   ...      0.01150393 Eh       7.22 kcal/mol
Thermal rotational correction    ...      0.00141627 Eh       0.89 kcal/mol
Thermal translational correction ...      0.00141627 Eh       0.89 kcal/mol
-----------------------------------------------------------------------
Total thermal energy                  -4506.95784484 Eh

Summary of corrections to the electronic energy:
(perhaps to be used in another calculation)
Total thermal correction                  0.01433647 Eh       9.00 kcal/mol
Non-thermal (ZPE) correction              0.04612723 Eh      28.95 kcal/mol
-----------------------------------------------------------------------
Total correction                          0.06046370 Eh      37.94 kcal/mol

--------
ENTHALPY
--------

The enthalpy is H = U + kB*T
                kB is Boltzmann's constant
Total free energy                 ...  -4506.95784484 Eh
Thermal Enthalpy correction       ...      0.00094421 Eh       0.59 kcal/mol
-----------------------------------------------------------------------
Total Enthalpy                    ...  -4506.95690063 Eh

Note: Only C1 symmetry has been detected, increase convergence thresholds
      if your molecule has a higher symmetry. Symmetry factor of 1.0 is
      used for the rotational entropy correction.

Note: Rotational entropy computed according to Herzberg
Infrared and Raman Spectra, Chapter V,1, Van Nostrand Reinhold, 1945
Point Group:  C1, Symmetry Number:   1
Rotational constants in cm-1:     0.088988     0.012806     0.012803

Vibrational entropy computed according to the QRRHO of S. Grimme
Chem.Eur.J. 2012 18 9955

-------
ENTROPY
-------

The entropy contributions are T*S = T*(S(el)+S(vib)+S(rot)+S(trans))
     S(el)   - electronic entropy
     S(vib)  - vibrational entropy
     S(rot)  - rotational entropy
     S(trans)- translational entropy
The entropies will be listed as multiplied by the temperature to get
units of energy

Electronic entropy                ...      0.00065446 Eh      0.41 kcal/mol
Vibrational entropy               ...      0.02031098 Eh     12.75 kcal/mol
Rotational entropy                ...      0.01476762 Eh      9.27 kcal/mol
Translational entropy             ...      0.02044037 Eh     12.83 kcal/mol
-----------------------------------------------------------------------
Final entropy term                ...      0.05617343 Eh     35.25 kcal/mol

In case the symmetry of your molecule has not been determined correctly
or in case you have a reason to use a different symmetry number we print
out the resulting rotational entropy values for sn=1,12 :
 --------------------------------------------------------
|  sn= 1 | S(rot)=       0.01476762 Eh      9.27 kcal/mol|
|  sn= 2 | S(rot)=       0.01411317 Eh      8.86 kcal/mol|
|  sn= 3 | S(rot)=       0.01373034 Eh      8.62 kcal/mol|
|  sn= 4 | S(rot)=       0.01345871 Eh      8.45 kcal/mol|
|  sn= 5 | S(rot)=       0.01324802 Eh      8.31 kcal/mol|
|  sn= 6 | S(rot)=       0.01307588 Eh      8.21 kcal/mol|
|  sn= 7 | S(rot)=       0.01293033 Eh      8.11 kcal/mol|
|  sn= 8 | S(rot)=       0.01280425 Eh      8.03 kcal/mol|
|  sn= 9 | S(rot)=       0.01269305 Eh      7.96 kcal/mol|
|  sn=10 | S(rot)=       0.01259357 Eh      7.90 kcal/mol|
|  sn=11 | S(rot)=       0.01250358 Eh      7.85 kcal/mol|
|  sn=12 | S(rot)=       0.01242142 Eh      7.79 kcal/mol|
 --------------------------------------------------------

-------------------
GIBBS FREE ENERGY
-------------------

The Gibbs free energy is G = H - T*S

Total enthalpy                    ...  -4506.95690063 Eh
Total entropy correction          ...     -0.05617343 Eh    -35.25 kcal/mol
-----------------------------------------------------------------------
Final Gibbs free energy         ...  -4507.01307406 Eh

For completeness - the Gibbs free energy minus the electronic energy
G-E(el)                           ...      0.00523448 Eh      3.28 kcal/mol

                             ****ORCA TERMINATED NORMALLY****
TOTAL RUN TIME: 0 days 0 hours 33 minutes 22 seconds 282 msec
