                         Program Version 4.2.1 -  RELEASE  -
|  1> #end
|  2> %method
|  3> 	method HF
|  4> 	runtyp OPT
|  5> end
|  6> %basis
|  7> 	basis "6-31G**"
|  8> end
|  9> ! NumFreq
| 10> %elprop
| 11> 	Polar 1
| 12> end
| 13> %output
| 14> 	XYZFile true
| 15> 	Print [ P_AtPopMO_L ] 1
| 16> 	Print [ P_OrbPopMO_L ] 1
| 17> end
| 18> %coords
| 19> 	CTyp xyz
| 20> 	Charge 0
| 21> 	Mult 1
| 22> 	Units Angs
| 23> 	coords
| 24> 	N       -6.4382077600      2.3423568560      0.0380982609
| 25> 	H       -5.4208800106      2.3479326254     -0.0199892628
| 26> 	H       -6.7498062077      1.5827316221     -0.5654221700
| 27> 	H       -6.7498091349      3.2028874120     -0.4099561403
| 28> 	end
| 29> end
| 30>
| 31>
| 32>                          ****END OF INPUT****
 Total Charge           Charge          ....    0
 Multiplicity           Mult            ....    1
 Number of Electrons    NEL             ....   10
FINAL SINGLE POINT ENERGY       -56.194463425799
FINAL SINGLE POINT ENERGY       -56.195222968871
FINAL SINGLE POINT ENERGY       -56.195301061260
FINAL SINGLE POINT ENERGY       -56.195332142273
                    ***********************HURRAY********************

CARTESIAN COORDINATES (ANGSTROEM)
---------------------------------
  N     -6.430413    2.344469    0.016089
  H     -5.430121    2.347454   -0.014998
  H     -6.749083    1.587945   -0.556335
  H     -6.749086    3.196041   -0.402026

 Multiplicity           Mult            ....    1
 Number of Electrons    NEL             ....   10
 Basis Dimension        Dim             ....   29

ORBITAL ENERGIES
----------------

  NO   OCC          E(Eh)            E(eV)
   0   2.0000     -15.533044      -422.6756
   1   2.0000      -1.139221       -30.9998
   2   2.0000      -0.625784       -17.0285
   3   2.0000      -0.625762       -17.0279
   4   2.0000      -0.418064       -11.3761
   5   0.0000       0.226563         6.1651
   6   0.0000       0.325996         8.8708
   7   0.0000       0.325997         8.8708
   8   0.0000       0.894808        24.3490
   9   0.0000       0.894838        24.3498

MULLIKEN ATOMIC CHARGES
-----------------------
   0 N :   -0.789389
   1 H :    0.263124
   2 H :    0.263132
   3 H :    0.263132
Sum of atomic charges:   -0.0000000

LOEWDIN ATOMIC CHARGES
----------------------
   0 N :   -0.370258
   1 H :    0.123419
   2 H :    0.123419
   3 H :    0.123419

  Mayer bond orders larger than 0.100000
B(  0-N ,  1-H ) :   0.9194 B(  0-N ,  2-H ) :   0.9194 B(  0-N ,  3-H ) :   0.9194

FINAL SINGLE POINT ENERGY       -56.195332319793

DIPOLE MOMENT
-------------
                                X             Y             Z
Electronic contribution:     -0.03997      -0.01079       0.11242
Nuclear contribution   :      0.27993       0.07561      -0.78795
                        -----------------------------------------
Total Dipole Moment    :      0.23996       0.06482      -0.67553
                        -----------------------------------------
Magnitude (a.u.)       :      0.71981
Magnitude (Debye)      :      1.82960

VIBRATIONAL FREQUENCIES
-----------------------

Scaling factor for frequencies =  1.000000000 (already applied!)

   0:         0.00 cm**-1
   1:         0.00 cm**-1
   2:         0.00 cm**-1
   3:         0.00 cm**-1
   4:         0.00 cm**-1
   5:         0.00 cm**-1
   6:      1142.64 cm**-1
   7:      1810.02 cm**-1
   8:      1810.25 cm**-1
   9:      3706.25 cm**-1
  10:      3842.88 cm**-1
  11:      3843.08 cm**-1

IR SPECTRUM
-----------

 Mode    freq (cm**-1)   T**2         TX         TY         TZ
-------------------------------------------------------------------
   6:      1142.64  217.634477  (  4.925220   1.332036 -13.842051)
   7:      1810.02   21.057529  (  0.068039   4.565536   0.456921)
   8:      1810.25   21.027078  ( -4.323536   0.217291  -1.512250)
   9:      3706.25    0.093956  (  0.097967   0.027561  -0.289134)
  10:      3842.88    0.828226  ( -0.856535   0.080938  -0.296687)
  11:      3843.08    0.841275  (  0.048892   0.910142   0.102594)

--------------------------
THERMOCHEMISTRY AT 298.15K
--------------------------

Temperature         ... 298.15 K
Pressure            ... 1.00 atm
Total Mass          ... 17.03 AMU

Throughout the following assumptions are being made:
  (1) The electronic state is orbitally nondegenerate
  (2) There are no thermally accessible electronically excited states
  (3) Hindered rotations indicated by low frequency modes are not
      treated as such but are treated as vibrations and this may
      cause some error
  (4) All equations used are the standard statistical mechanics
      equations for an ideal gas
  (5) All vibrations are strictly harmonic

freq.    1142.64  E(vib)   ...       0.01
freq.    1810.02  E(vib)   ...       0.00
freq.    1810.25  E(vib)   ...       0.00
freq.    3706.25  E(vib)   ...       0.00
freq.    3842.88  E(vib)   ...       0.00
freq.    3843.08  E(vib)   ...       0.00

------------
INNER ENERGY
------------

The inner energy is: U= E(el) + E(ZPE) + E(vib) + E(rot) + E(trans)
    E(el)   - is the total energy from the electronic structure calculation
              = E(kin-el) + E(nuc-el) + E(el-el) + E(nuc-nuc)
    E(ZPE)  - the the zero temperature vibrational energy from the frequency calculation
    E(vib)  - the the finite temperature correction to E(ZPE) due to population
              of excited vibrational states
    E(rot)  - is the rotational thermal energy
    E(trans)- is the translational thermal energy

Summary of contributions to the inner energy U:
Electronic energy                ...    -56.19533232 Eh
Zero point energy                ...      0.03680408 Eh      23.09 kcal/mol
Thermal vibrational correction   ...      0.00002372 Eh       0.01 kcal/mol
Thermal rotational correction    ...      0.00141627 Eh       0.89 kcal/mol
Thermal translational correction ...      0.00141627 Eh       0.89 kcal/mol
-----------------------------------------------------------------------
Total thermal energy                    -56.15567198 Eh

Summary of corrections to the electronic energy:
(perhaps to be used in another calculation)
Total thermal correction                  0.00285627 Eh       1.79 kcal/mol
Non-thermal (ZPE) correction              0.03680408 Eh      23.09 kcal/mol
-----------------------------------------------------------------------
Total correction                          0.03966034 Eh      24.89 kcal/mol

--------
ENTHALPY
--------

The enthalpy is H = U + kB*T
                kB is Boltzmann's constant
Total free energy                 ...    -56.15567198 Eh
Thermal Enthalpy correction       ...      0.00094421 Eh       0.59 kcal/mol
-----------------------------------------------------------------------
Total Enthalpy                    ...    -56.15472777 Eh

Note: Rotational entropy computed according to Herzberg
Infrared and Raman Spectra, Chapter V,1, Van Nostrand Reinhold, 1945
Point Group:  Cs, Symmetry Number:   1
Rotational constants in cm-1:    10.262401    10.261467     6.408501

Vibrational entropy computed according to the QRRHO of S. Grimme
Chem.Eur.J. 2012 18 9955

-------
ENTROPY
-------

The entropy contributions are T*S = T*(S(el)+S(vib)+S(rot)+S(trans))
     S(el)   - electronic entropy
     S(vib)  - vibrational entropy
     S(rot)  - rotational entropy
     S(trans)- translational entropy
The entropies will be listed as mutliplied by the temperature to get
units of energy

Electronic entropy                ...      0.00000000 Eh      0.00 kcal/mol
Vibrational entropy               ...      0.00002785 Eh      0.02 kcal/mol
Rotational entropy                ...      0.00643537 Eh      4.04 kcal/mol
Translational entropy             ...      0.01636425 Eh     10.27 kcal/mol
-----------------------------------------------------------------------
Final entropy term                ...      0.02282747 Eh     14.32 kcal/mol

In case the symmetry of your molecule has not been determined correctly
or in case you have a reason to use a different symmetry number we print
out the resulting rotational entropy values for sn=1,12 :
 --------------------------------------------------------
|  sn= 1 | S(rot)=       0.00643537 Eh      4.04 kcal/mol|
|  sn= 2 | S(rot)=       0.00578092 Eh      3.63 kcal/mol|
|  sn= 3 | S(rot)=       0.00539808 Eh      3.39 kcal/mol|
|  sn= 4 | S(rot)=       0.00512646 Eh      3.22 kcal/mol|
|  sn= 5 | S(rot)=       0.00491577 Eh      3.08 kcal/mol|
|  sn= 6 | S(rot)=       0.00474363 Eh      2.98 kcal/mol|
|  sn= 7 | S(rot)=       0.00459808 Eh      2.89 kcal/mol|
|  sn= 8 | S(rot)=       0.00447200 Eh      2.81 kcal/mol|
|  sn= 9 | S(rot)=       0.00436080 Eh      2.74 kcal/mol|
|  sn=10 | S(rot)=       0.00426132 Eh      2.67 kcal/mol|
|  sn=11 | S(rot)=       0.00417133 Eh      2.62 kcal/mol|
|  sn=12 | S(rot)=       0.00408917 Eh      2.57 kcal/mol|
 --------------------------------------------------------

-------------------
GIBBS FREE ENERGY
-------------------

The Gibbs free energy is G = H - T*S

Total enthalpy                    ...    -56.15472777 Eh
Total entropy correction          ...     -0.02282747 Eh    -14.32 kcal/mol
-----------------------------------------------------------------------
Final Gibbs free energy         ...    -56.17755524 Eh

For completeness - the Gibbs free energy minus the electronic energy
G-E(el)                           ...      0.01777708 Eh     11.16 kcal/mol

                             ****ORCA TERMINATED NORMALLY****
TOTAL RUN TIME: 0 days 0 hours 1 minutes 43 seconds 914 msec
