                         Program Version 4.2.1 -  RELEASE  -
|  1> ! VWN
|  2>
|  3> %method
|  4>         method DFT
|  5>         runtyp OPT
|  6> end
|  7>
|  8> %basis
|  9>         basis "def2-TZVP"
| 10> end
| 11> ! NumFreq
| 12> %output
| 13>         XYZFile true
| 14> end
| 15> %coords
| 16>         CTyp xyz
| 17>         Charge -2
| 18>         Mult 1
| 19>         Units Angs
| 20>         coords
| 21>         P       -1.3964703605      0.5346218729     -0.0392481365
| 22> 	H        0.1725606238      0.5123737189     -0.0821591799
| 23>         end
| 24> end
| 25>
| 26>                          ****END OF INPUT****
 Total Charge           Charge          ....   -2
 Multiplicity           Mult            ....    1
 Number of Electrons    NEL             ....   18
FINAL SINGLE POINT ENERGY      -340.421292456356
FINAL SINGLE POINT ENERGY      -340.422599915077
FINAL SINGLE POINT ENERGY      -340.422991095598
FINAL SINGLE POINT ENERGY      -340.423015146503
FINAL SINGLE POINT ENERGY      -340.423016346382
                    ***********************HURRAY********************

CARTESIAN COORDINATES (ANGSTROEM)
---------------------------------
  P     -1.352755    0.534002   -0.040444
  H      0.128845    0.512994   -0.080964

 Multiplicity           Mult            ....    1
 Number of Electrons    NEL             ....   18
 Basis Dimension        Dim             ....   43

ORBITAL ENERGIES
----------------

  NO   OCC          E(Eh)            E(eV)
   0   2.0000     -75.433947     -2052.6621
   1   2.0000      -5.713146      -155.4626
   2   2.0000      -3.962067      -107.8133
   3   2.0000      -3.959908      -107.7546
   4   2.0000      -3.959907      -107.7545
   5   2.0000       0.009807         0.2669
   6   2.0000       0.212574         5.7844
   7   2.0000       0.327482         8.9112
   8   2.0000       0.327494         8.9116
   9   0.0000       0.429475        11.6866
  10   0.0000       0.573479        15.6052
  11   0.0000       0.655358        17.8332
  12   0.0000       0.655389        17.8340
  13   0.0000       0.685047        18.6411

MULLIKEN ATOMIC CHARGES
-----------------------
   0 P :   -1.786805
   1 H :   -0.213195
Sum of atomic charges:   -2.0000000

LOEWDIN ATOMIC CHARGES
----------------------
   0 P :   -1.858747
   1 H :   -0.141253

  Mayer bond orders larger than 0.100000
B(  0-P ,  1-H ) :   0.9545

FINAL SINGLE POINT ENERGY      -340.423016369958

DIPOLE MOMENT
-------------
                                X             Y             Z
Electronic contribution:     -1.49552       0.02012       0.03881
Nuclear contribution   :      1.38792      -0.01968      -0.03796
                        -----------------------------------------
Total Dipole Moment    :     -0.10761       0.00044       0.00085
                        -----------------------------------------
Magnitude (a.u.)       :      0.10761
Magnitude (Debye)      :      0.27353

VIBRATIONAL FREQUENCIES
-----------------------

Scaling factor for frequencies =  1.000000000 (already applied!)

   0:         0.00 cm**-1
   1:         0.00 cm**-1
   2:         0.00 cm**-1
   3:         0.00 cm**-1
   4:         0.00 cm**-1
   5:      1966.23 cm**-1

IR SPECTRUM
-----------

 Mode    freq (cm**-1)   T**2         TX         TY         TZ
-------------------------------------------------------------------
   5:      1966.23  721.293077  ( 26.835079  -0.523508  -0.947400)

--------------------------
THERMOCHEMISTRY AT 298.15K
--------------------------

Temperature         ... 298.15 K
Pressure            ... 1.00 atm
Total Mass          ... 31.98 AMU
The molecule is recognized as being linear

Throughout the following assumptions are being made:
  (1) The electronic state is orbitally nondegenerate
  (2) There are no thermally accessible electronically excited states
  (3) Hindered rotations indicated by low frequency modes are not
      treated as such but are treated as vibrations and this may
      cause some error
  (4) All equations used are the standard statistical mechanics
      equations for an ideal gas
  (5) All vibrations are strictly harmonic

freq.    1966.23  E(vib)   ...       0.00

------------
INNER ENERGY
------------

The inner energy is: U= E(el) + E(ZPE) + E(vib) + E(rot) + E(trans)
    E(el)   - is the total energy from the electronic structure calculation
              = E(kin-el) + E(nuc-el) + E(el-el) + E(nuc-nuc)
    E(ZPE)  - the the zero temperature vibrational energy from the frequency calculation
    E(vib)  - the the finite temperature correction to E(ZPE) due to population
              of excited vibrational states
    E(rot)  - is the rotational thermal energy
    E(trans)- is the translational thermal energy

Summary of contributions to the inner energy U:
Electronic energy                ...   -340.42301638 Eh
Zero point energy                ...      0.00447941 Eh       2.81 kcal/mol
Thermal vibrational correction   ...      0.00000068 Eh       0.00 kcal/mol
Thermal rotational correction    ...      0.00094418 Eh       0.59 kcal/mol
Thermal translational correction ...      0.00141627 Eh       0.89 kcal/mol
-----------------------------------------------------------------------
Total thermal energy                   -340.41617583 Eh

Summary of corrections to the electronic energy:
(perhaps to be used in another calculation)
Total thermal correction                  0.00236113 Eh       1.48 kcal/mol
Non-thermal (ZPE) correction              0.00447941 Eh       2.81 kcal/mol
-----------------------------------------------------------------------
Total correction                          0.00684054 Eh       4.29 kcal/mol

--------
ENTHALPY
--------

The enthalpy is H = U + kB*T
                kB is Boltzmann's constant
Total free energy                 ...   -340.41617583 Eh
Thermal Enthalpy correction       ...      0.00094421 Eh       0.59 kcal/mol
-----------------------------------------------------------------------
Total Enthalpy                    ...   -340.41523162 Eh

Note: Rotational entropy computed according to Herzberg
Infrared and Raman Spectra, Chapter V,1, Van Nostrand Reinhold, 1945
Point Group:  Cinfv, Symmetry Number:   1
Rotational constants in cm-1:     0.000000     7.859065     7.859065

Vibrational entropy computed according to the QRRHO of S. Grimme
Chem.Eur.J. 2012 18 9955

-------
ENTROPY
-------

The entropy contributions are T*S = T*(S(el)+S(vib)+S(rot)+S(trans))
     S(el)   - electronic entropy
     S(vib)  - vibrational entropy
     S(rot)  - rotational entropy
     S(trans)- translational entropy
The entropies will be listed as mutliplied by the temperature to get
units of energy

Electronic entropy                ...      0.00000000 Eh      0.00 kcal/mol
Vibrational entropy               ...      0.00000075 Eh      0.00 kcal/mol
Rotational entropy                ...      0.00403368 Eh      2.53 kcal/mol
Translational entropy             ...      0.01725670 Eh     10.83 kcal/mol
-----------------------------------------------------------------------
Final entropy term                ...      0.02129112 Eh     13.36 kcal/mol

In case the symmetry of your molecule has not been determined correctly
or in case you have a reason to use a different symmetry number we print
out the resulting rotational entropy values for sn=1,12 :
 --------------------------------------------------------
|  sn= 1 | S(rot)=      -0.01179794 Eh     -7.40 kcal/mol|
|  sn= 2 | S(rot)=      -0.01245240 Eh     -7.81 kcal/mol|
|  sn= 3 | S(rot)=      -0.01283523 Eh     -8.05 kcal/mol|
|  sn= 4 | S(rot)=      -0.01310685 Eh     -8.22 kcal/mol|
|  sn= 5 | S(rot)=      -0.01331754 Eh     -8.36 kcal/mol|
|  sn= 6 | S(rot)=      -0.01348969 Eh     -8.46 kcal/mol|
|  sn= 7 | S(rot)=      -0.01363523 Eh     -8.56 kcal/mol|
|  sn= 8 | S(rot)=      -0.01376131 Eh     -8.64 kcal/mol|
|  sn= 9 | S(rot)=      -0.01387252 Eh     -8.71 kcal/mol|
|  sn=10 | S(rot)=      -0.01397200 Eh     -8.77 kcal/mol|
|  sn=11 | S(rot)=      -0.01406199 Eh     -8.82 kcal/mol|
|  sn=12 | S(rot)=      -0.01414414 Eh     -8.88 kcal/mol|
 --------------------------------------------------------

-------------------
GIBBS FREE ENERGY
-------------------

The Gibbs free energy is G = H - T*S

Total enthalpy                    ...   -340.41523162 Eh
Total entropy correction          ...     -0.02129112 Eh    -13.36 kcal/mol
-----------------------------------------------------------------------
Final Gibbs free energy         ...   -340.43652275 Eh

For completeness - the Gibbs free energy minus the electronic energy
G-E(el)                           ...     -0.01350637 Eh     -8.48 kcal/mol

                             ****ORCA TERMINATED NORMALLY****
TOTAL RUN TIME: 0 days 0 hours 0 minutes 52 seconds 441 msec
