                         Program Version 4.2.1 -  RELEASE  -
|  1> ! PAL4 VWN
|  2>
|  3> %method
|  4>         method DFT
|  5>         runtyp OPT
|  6> end
|  7>
|  8> %basis
|  9>         basis "def2-TZVP"
| 10> end
| 11> ! NumFreq
| 12> %output
| 13>         XYZFile true
| 14> end
| 15> %coords
| 16>         CTyp xyz
| 17>         Charge -1
| 18>         Mult 1
| 19>         Units Angs
| 20>         coords
| 21>         P       -1.3964703605      0.5346218729     -0.0392481365
| 22> 	H        0.1725606238      0.5123737189     -0.0821591799
| 23> 	H       -1.9650463708      1.2081038033      1.2597276053
| 24>         end
| 25> end
| 26>
| 27>                          ****END OF INPUT****
 Total Charge           Charge          ....   -1
 Multiplicity           Mult            ....    1
 Number of Electrons    NEL             ....   18
FINAL SINGLE POINT ENERGY      -341.245429852260
FINAL SINGLE POINT ENERGY      -341.259444611355
FINAL SINGLE POINT ENERGY      -341.264242512188
FINAL SINGLE POINT ENERGY      -341.264689569305
FINAL SINGLE POINT ENERGY      -341.264716425979
FINAL SINGLE POINT ENERGY      -341.264717286032
                    ***********************HURRAY********************

CARTESIAN COORDINATES (ANGSTROEM)
---------------------------------
  P     -1.455237    0.496786   -0.112224
  H     -0.029492    0.606706    0.099784
  H     -1.704227    1.151607    1.150760

 Multiplicity           Mult            ....    1
 Number of Electrons    NEL             ....   18
 Basis Dimension        Dim             ....   49

ORBITAL ENERGIES
----------------

  NO   OCC          E(Eh)            E(eV)
   0   2.0000     -75.690470     -2059.6424
   1   2.0000      -5.974054      -162.5623
   2   2.0000      -4.222551      -114.9014
   3   2.0000      -4.221371      -114.8694
   4   2.0000      -4.219493      -114.8182
   5   2.0000      -0.283314        -7.7094
   6   2.0000      -0.079048        -2.1510
   7   2.0000      -0.006756        -0.1839
   8   2.0000       0.083900         2.2830
   9   0.0000       0.220552         6.0015
  10   0.0000       0.223066         6.0699
  11   0.0000       0.362552         9.8655
  12   0.0000       0.390352        10.6220
  13   0.0000       0.438415        11.9299

MULLIKEN ATOMIC CHARGES
-----------------------
   0 P :   -0.919699
   1 H :   -0.038443
   2 H :   -0.041858
Sum of atomic charges:   -1.0000000

LOEWDIN ATOMIC CHARGES
----------------------
   0 P :   -0.888686
   1 H :   -0.055831
   2 H :   -0.055482

  Mayer bond orders larger than 0.100000
B(  0-P ,  1-H ) :   0.9891 B(  0-P ,  2-H ) :   0.9892

FINAL SINGLE POINT ENERGY      -341.264717286876

DIPOLE MOMENT
-------------
                                X             Y             Z
Electronic contribution:     -1.02005      -0.67121      -1.27936
Nuclear contribution   :      1.06866       0.69450       1.33951
                        -----------------------------------------
Total Dipole Moment    :      0.04862       0.02329       0.06014
                        -----------------------------------------
Magnitude (a.u.)       :      0.08077
Magnitude (Debye)      :      0.20529

VIBRATIONAL FREQUENCIES
-----------------------

Scaling factor for frequencies =  1.000000000 (already applied!)

   0:         0.00 cm**-1
   1:         0.00 cm**-1
   2:         0.00 cm**-1
   3:         0.00 cm**-1
   4:         0.00 cm**-1
   5:         0.00 cm**-1
   6:      1026.85 cm**-1
   7:      2216.74 cm**-1
   8:      2227.85 cm**-1

IR SPECTRUM
-----------

 Mode    freq (cm**-1)   T**2         TX         TY         TZ
-------------------------------------------------------------------
   6:      1026.85   16.205372  ( -2.320704  -1.495074  -2.929925)
   7:      2216.74  222.175377  ( 11.992515   3.890376   7.951097)
   8:      2227.85  240.481242  ( -9.438984   5.395847  11.057652)

--------------------------
THERMOCHEMISTRY AT 298.15K
--------------------------

Temperature         ... 298.15 K
Pressure            ... 1.00 atm
Total Mass          ... 32.99 AMU

Throughout the following assumptions are being made:
  (1) The electronic state is orbitally nondegenerate
  (2) There are no thermally accessible electronically excited states
  (3) Hindered rotations indicated by low frequency modes are not
      treated as such but are treated as vibrations and this may
      cause some error
  (4) All equations used are the standard statistical mechanics
      equations for an ideal gas
  (5) All vibrations are strictly harmonic

freq.    1026.85  E(vib)   ...       0.02
freq.    2216.74  E(vib)   ...       0.00
freq.    2227.85  E(vib)   ...       0.00

------------
INNER ENERGY
------------

The inner energy is: U= E(el) + E(ZPE) + E(vib) + E(rot) + E(trans)
    E(el)   - is the total energy from the electronic structure calculation
              = E(kin-el) + E(nuc-el) + E(el-el) + E(nuc-nuc)
    E(ZPE)  - the the zero temperature vibrational energy from the frequency calculation
    E(vib)  - the the finite temperature correction to E(ZPE) due to population
              of excited vibrational states
    E(rot)  - is the rotational thermal energy
    E(trans)- is the translational thermal energy

Summary of contributions to the inner energy U:
Electronic energy                ...   -341.26471729 Eh
Zero point energy                ...      0.01246485 Eh       7.82 kcal/mol
Thermal vibrational correction   ...      0.00003365 Eh       0.02 kcal/mol
Thermal rotational correction    ...      0.00141627 Eh       0.89 kcal/mol
Thermal translational correction ...      0.00141627 Eh       0.89 kcal/mol
-----------------------------------------------------------------------
Total thermal energy                   -341.24938625 Eh

Summary of corrections to the electronic energy:
(perhaps to be used in another calculation)
Total thermal correction                  0.00286619 Eh       1.80 kcal/mol
Non-thermal (ZPE) correction              0.01246485 Eh       7.82 kcal/mol
-----------------------------------------------------------------------
Total correction                          0.01533104 Eh       9.62 kcal/mol

--------
ENTHALPY
--------

The enthalpy is H = U + kB*T
                kB is Boltzmann's constant
Total free energy                 ...   -341.24938625 Eh
Thermal Enthalpy correction       ...      0.00094421 Eh       0.59 kcal/mol
-----------------------------------------------------------------------
Total Enthalpy                    ...   -341.24844204 Eh

Note: Rotational entropy computed according to Herzberg
Infrared and Raman Spectra, Chapter V,1, Van Nostrand Reinhold, 1945
Point Group:  Cs, Symmetry Number:   1
Rotational constants in cm-1:     8.594346     7.951910     4.130328

Vibrational entropy computed according to the QRRHO of S. Grimme
Chem.Eur.J. 2012 18 9955

-------
ENTROPY
-------

The entropy contributions are T*S = T*(S(el)+S(vib)+S(rot)+S(trans))
     S(el)   - electronic entropy
     S(vib)  - vibrational entropy
     S(rot)  - rotational entropy
     S(trans)- translational entropy
The entropies will be listed as mutliplied by the temperature to get
units of energy

Electronic entropy                ...      0.00000000 Eh      0.00 kcal/mol
Vibrational entropy               ...      0.00004039 Eh      0.03 kcal/mol
Rotational entropy                ...      0.00684686 Eh      4.30 kcal/mol
Translational entropy             ...      0.01730065 Eh     10.86 kcal/mol
-----------------------------------------------------------------------
Final entropy term                ...      0.02418790 Eh     15.18 kcal/mol

In case the symmetry of your molecule has not been determined correctly
or in case you have a reason to use a different symmetry number we print
out the resulting rotational entropy values for sn=1,12 :
 --------------------------------------------------------
|  sn= 1 | S(rot)=       0.00684686 Eh      4.30 kcal/mol|
|  sn= 2 | S(rot)=       0.00619241 Eh      3.89 kcal/mol|
|  sn= 3 | S(rot)=       0.00580957 Eh      3.65 kcal/mol|
|  sn= 4 | S(rot)=       0.00553795 Eh      3.48 kcal/mol|
|  sn= 5 | S(rot)=       0.00532726 Eh      3.34 kcal/mol|
|  sn= 6 | S(rot)=       0.00515512 Eh      3.23 kcal/mol|
|  sn= 7 | S(rot)=       0.00500957 Eh      3.14 kcal/mol|
|  sn= 8 | S(rot)=       0.00488349 Eh      3.06 kcal/mol|
|  sn= 9 | S(rot)=       0.00477229 Eh      2.99 kcal/mol|
|  sn=10 | S(rot)=       0.00467281 Eh      2.93 kcal/mol|
|  sn=11 | S(rot)=       0.00458282 Eh      2.88 kcal/mol|
|  sn=12 | S(rot)=       0.00450066 Eh      2.82 kcal/mol|
 --------------------------------------------------------

-------------------
GIBBS FREE ENERGY
-------------------

The Gibbs free energy is G = H - T*S

Total enthalpy                    ...   -341.24844204 Eh
Total entropy correction          ...     -0.02418790 Eh    -15.18 kcal/mol
-----------------------------------------------------------------------
Final Gibbs free energy         ...   -341.27262993 Eh

For completeness - the Gibbs free energy minus the electronic energy
G-E(el)                           ...     -0.00791265 Eh     -4.97 kcal/mol

                             ****ORCA TERMINATED NORMALLY****
TOTAL RUN TIME: 0 days 0 hours 0 minutes 53 seconds 32 msec
