                         Program Version 5.0.3 -  RELEASE  -
|  1> ! PAL5 PBE0 NumFreq
|  2> %method
|  3>         method DFT
|  4>         runtyp Energy
|  5> end
|  6> %basis
|  7>         basis "def2-TZVP"
|  8> end
|  9> %coords
| 10>         CTyp xyz
| 11>         Charge 0
| 12>         Mult 1
| 13>         Units Angs
| 14>         coords
| 15> 	#75
| 16> 	C     -1.011290    0.960957    0.000001
| 17> 	N     -1.306086    0.975537   -1.118876
| 18> 	H     -2.068270    1.013340    0.000003
| 19> 	end
| 20> end
| 21> %eprnmr
| 22>         NMRShielding 1
| 23>         Nuclei = all N {shift}
| 24>         Nuclei = all C {shift}
| 25>         Nuclei = all H {shift}
| 26> endd                         ****END OF INPUT****

CARTESIAN COORDINATES (ANGSTROEM)
---------------------------------
  C     -1.011290    0.960957    0.000001
  N     -1.306086    0.975537   -1.118876
  H     -2.068270    1.013340    0.000003

 Total Charge           Charge          ....    0
 Multiplicity           Mult            ....    1
 Number of Electrons    NEL             ....   14
 Basis Dimension        Dim             ....   68

ORBITAL ENERGIES
----------------

  NO   OCC          E(Eh)            E(eV)
   0   2.0000     -14.456114      -393.3709
   1   2.0000     -10.276513      -279.6381
   2   2.0000      -1.040346       -28.3093
   3   2.0000      -0.570913       -15.5353
   4   2.0000      -0.470414       -12.8006
   5   2.0000      -0.417297       -11.3552
   6   2.0000      -0.361995        -9.8504
   7   0.0000      -0.059053        -1.6069
   8   0.0000       0.009615         0.2616
   9   0.0000       0.071109         1.9350
  10   0.0000       0.159018         4.3271
  11   0.0000       0.202920         5.5217

MULLIKEN ATOMIC CHARGES
-----------------------
   0 C :   -0.266034
   1 N :    0.023449
   2 H :    0.242585
Sum of atomic charges:    0.0000000

LOEWDIN ATOMIC CHARGES
----------------------
   0 C :   -0.315377
   1 N :    0.114726
   2 H :    0.200650

  Mayer bond orders larger than 0.100000
B(  0-C ,  1-N ) :   2.3743 B(  0-C ,  2-H ) :   0.6776 B(  1-N ,  2-H ) :   0.3152

FINAL SINGLE POINT ENERGY       -93.263357963443

DIPOLE MOMENT
-------------
                                X             Y             Z
Electronic contribution:      0.41248      -0.02043      -0.36649
Nuclear contribution   :     -0.81187       0.04025       0.54107
                        -----------------------------------------
Total Dipole Moment    :     -0.39939       0.01982       0.17458
                        -----------------------------------------
Magnitude (a.u.)       :      0.43633
Magnitude (Debye)      :      1.10906

CHEMICAL SHIELDING SUMMARY (ppm)
--------------------------------

  Nucleus  Element    Isotropic     Anisotropy
  -------  -------  ------------   ------------
      1       N         -210.699       -532.277
      0       C           33.758        361.358
      2       H           29.545         11.733

VIBRATIONAL FREQUENCIES
-----------------------

Scaling factor for frequencies =  1.000000000 (already applied!)

   0:         0.00 cm**-1
   1:         0.00 cm**-1
   2:         0.00 cm**-1
   3:         0.00 cm**-1
   4:         0.00 cm**-1
   5:         0.00 cm**-1
   6:     -1390.96 cm**-1 ***imaginary mode***
   7:      2235.15 cm**-1
   8:      3596.98 cm**-1

IR SPECTRUM
-----------

 Mode   freq       eps      Int      T**2         TX        TY        TZ
       cm**-1   L/(mol*cm) km/mol    a.u.
----------------------------------------------------------------------------
  7:   2235.15   0.000912    4.61  0.000127  ( 0.011176 -0.000556 -0.001468)
  8:   3596.98   0.029361  148.38  0.002547  (-0.045337  0.002273  0.022060)

--------------------------
THERMOCHEMISTRY AT 298.15K
--------------------------

Temperature         ... 298.15 K
Pressure            ... 1.00 atm
Total Mass          ... 27.03 AMU

Throughout the following assumptions are being made:
  (1) The electronic state is orbitally nondegenerate
  (2) There are no thermally accessible electronically excited states
  (3) Hindered rotations indicated by low frequency modes are not
      treated as such but are treated as vibrations and this may
      cause some error
  (4) All equations used are the standard statistical mechanics
      equations for an ideal gas
  (5) All vibrations are strictly harmonic

freq.    2235.15  E(vib)   ...       0.00
freq.    3596.98  E(vib)   ...       0.00

------------
INNER ENERGY
------------

The inner energy is: U= E(el) + E(ZPE) + E(vib) + E(rot) + E(trans)
    E(el)   - is the total energy from the electronic structure calculation
              = E(kin-el) + E(nuc-el) + E(el-el) + E(nuc-nuc)
    E(ZPE)  - the the zero temperature vibrational energy from the frequency calculation
    E(vib)  - the the finite temperature correction to E(ZPE) due to population
              of excited vibrational states
    E(rot)  - is the rotational thermal energy
    E(trans)- is the translational thermal energy

Summary of contributions to the inner energy U:
Electronic energy                ...    -93.26335796 Eh
Zero point energy                ...      0.01328657 Eh       8.34 kcal/mol
Thermal vibrational correction   ...      0.00000021 Eh       0.00 kcal/mol
Thermal rotational correction    ...      0.00141627 Eh       0.89 kcal/mol
Thermal translational correction ...      0.00141627 Eh       0.89 kcal/mol
-----------------------------------------------------------------------
Total thermal energy                    -93.24723864 Eh

Summary of corrections to the electronic energy:
(perhaps to be used in another calculation)
Total thermal correction                  0.00283275 Eh       1.78 kcal/mol
Non-thermal (ZPE) correction              0.01328657 Eh       8.34 kcal/mol
-----------------------------------------------------------------------
Total correction                          0.01611932 Eh      10.12 kcal/mol

--------
ENTHALPY
--------

The enthalpy is H = U + kB*T
                kB is Boltzmann's constant
Total free energy                 ...    -93.24723864 Eh
Thermal Enthalpy correction       ...      0.00094421 Eh       0.59 kcal/mol
-----------------------------------------------------------------------
Total Enthalpy                    ...    -93.24629443 Eh

Note: Rotational entropy computed according to Herzberg
Infrared and Raman Spectra, Chapter V,1, Van Nostrand Reinhold, 1945
Point Group:  Cs, Symmetry Number:   1
Rotational constants in cm-1:    16.852598     1.916725     1.720989

Vibrational entropy computed according to the QRRHO of S. Grimme
Chem.Eur.J. 2012 18 9955

-------
ENTROPY
-------

The entropy contributions are T*S = T*(S(el)+S(vib)+S(rot)+S(trans))
     S(el)   - electronic entropy
     S(vib)  - vibrational entropy
     S(rot)  - rotational entropy
     S(trans)- translational entropy
The entropies will be listed as multiplied by the temperature to get
units of energy

Electronic entropy                ...      0.00000000 Eh      0.00 kcal/mol
Vibrational entropy               ...      0.00000023 Eh      0.00 kcal/mol
Rotational entropy                ...      0.00761394 Eh      4.78 kcal/mol
Translational entropy             ...      0.01701823 Eh     10.68 kcal/mol
-----------------------------------------------------------------------
Final entropy term                ...      0.02463240 Eh     15.46 kcal/mol

In case the symmetry of your molecule has not been determined correctly
or in case you have a reason to use a different symmetry number we print
out the resulting rotational entropy values for sn=1,12 :
 --------------------------------------------------------
|  sn= 1 | S(rot)=       0.00761394 Eh      4.78 kcal/mol|
|  sn= 2 | S(rot)=       0.00695948 Eh      4.37 kcal/mol|
|  sn= 3 | S(rot)=       0.00657665 Eh      4.13 kcal/mol|
|  sn= 4 | S(rot)=       0.00630503 Eh      3.96 kcal/mol|
|  sn= 5 | S(rot)=       0.00609434 Eh      3.82 kcal/mol|
|  sn= 6 | S(rot)=       0.00592220 Eh      3.72 kcal/mol|
|  sn= 7 | S(rot)=       0.00577665 Eh      3.62 kcal/mol|
|  sn= 8 | S(rot)=       0.00565057 Eh      3.55 kcal/mol|
|  sn= 9 | S(rot)=       0.00553936 Eh      3.48 kcal/mol|
|  sn=10 | S(rot)=       0.00543988 Eh      3.41 kcal/mol|
|  sn=11 | S(rot)=       0.00534989 Eh      3.36 kcal/mol|
|  sn=12 | S(rot)=       0.00526774 Eh      3.31 kcal/mol|
 --------------------------------------------------------

-------------------
GIBBS FREE ENERGY
-------------------

The Gibbs free energy is G = H - T*S

Total enthalpy                    ...    -93.24629443 Eh
Total entropy correction          ...     -0.02463240 Eh    -15.46 kcal/mol
-----------------------------------------------------------------------
Final Gibbs free energy         ...    -93.27092684 Eh

For completeness - the Gibbs free energy minus the electronic energy
G-E(el)                           ...     -0.00756887 Eh     -4.75 kcal/mol

                             ****ORCA TERMINATED NORMALLY****
TOTAL RUN TIME: 0 days 0 hours 1 minutes 6 seconds 6 msec
