                         Program Version 5.0.3 -  RELEASE  -
|  1> ! PAL5 PBE0 NumFreq
|  2> %method
|  3>         method DFT
|  4>         runtyp Energy
|  5> end
|  6> %basis
|  7>         basis "def2-TZVP"
|  8> end
|  9> %coords
| 10>         CTyp xyz
| 11>         Charge 0
| 12>         Mult 1
| 13>         Units Angs
| 14>         coords
| 15> 	#105
| 16> 	N     -1.011290    0.960957    0.000001
| 17> 	C     -0.708861    0.946003   -1.116832
| 18> 	H     -2.068270    1.013340    0.000003
| 19> 	end
| 20> end
| 21> %eprnmr
| 22>         NMRShielding 1
| 23>         Nuclei = all N {shift}
| 24>         Nuclei = all C {shift}
| 25>         Nuclei = all H {shift}
| 26> endd                         ****END OF INPUT****

CARTESIAN COORDINATES (ANGSTROEM)
---------------------------------
  N     -1.011290    0.960957    0.000001
  C     -0.708861    0.946003   -1.116832
  H     -2.068270    1.013340    0.000003

 Total Charge           Charge          ....    0
 Multiplicity           Mult            ....    1
 Number of Electrons    NEL             ....   14
 Basis Dimension        Dim             ....   68

ORBITAL ENERGIES
----------------

  NO   OCC          E(Eh)            E(eV)
   0   2.0000     -14.420823      -392.4105
   1   2.0000     -10.290704      -280.0243
   2   2.0000      -1.012961       -27.5641
   3   2.0000      -0.604586       -16.4516
   4   2.0000      -0.443190       -12.0598
   5   2.0000      -0.407163       -11.0795
   6   2.0000      -0.342394        -9.3170
   7   0.0000      -0.049804        -1.3552
   8   0.0000       0.017913         0.4874
   9   0.0000       0.043126         1.1735
  10   0.0000       0.174365         4.7447
  11   0.0000       0.212105         5.7717

MULLIKEN ATOMIC CHARGES
-----------------------
   0 N :   -0.104617
   1 C :   -0.188646
   2 H :    0.293263
Sum of atomic charges:   -0.0000000

LOEWDIN ATOMIC CHARGES
----------------------
   0 N :   -0.015417
   1 C :   -0.219852
   2 H :    0.235270

  Mayer bond orders larger than 0.100000
B(  0-N ,  1-C ) :   2.2696 B(  0-N ,  2-H ) :   0.7988 B(  1-C ,  2-H ) :   0.1452

FINAL SINGLE POINT ENERGY       -93.298244694301

DIPOLE MOMENT
-------------
                                X             Y             Z
Electronic contribution:      0.31689      -0.01571      -0.12763
Nuclear contribution   :     -1.08127       0.05357       0.46840
                        -----------------------------------------
Total Dipole Moment    :     -0.76438       0.03787       0.34076
                        -----------------------------------------
Magnitude (a.u.)       :      0.83775
Magnitude (Debye)      :      2.12939

CHEMICAL SHIELDING SUMMARY (ppm)
--------------------------------

  Nucleus  Element    Isotropic     Anisotropy
  -------  -------  ------------   ------------
      0       N           53.527        336.327
      1       C          -77.797       -330.000
      2       H           24.154          8.538

VIBRATIONAL FREQUENCIES
-----------------------

Scaling factor for frequencies =  1.000000000 (already applied!)

   0:         0.00 cm**-1
   1:         0.00 cm**-1
   2:         0.00 cm**-1
   3:         0.00 cm**-1
   4:         0.00 cm**-1
   5:         0.00 cm**-1
   6:       448.00 cm**-1
   7:      2238.61 cm**-1
   8:      3167.74 cm**-1

IR SPECTRUM
-----------

 Mode   freq       eps      Int      T**2         TX        TY        TZ
       cm**-1   L/(mol*cm) km/mol    a.u.
----------------------------------------------------------------------------
  6:    448.00   0.034230  172.98  0.023843  (-0.058464  0.002902  0.142888)
  7:   2238.61   0.016891   85.36  0.002355  (-0.011746  0.000585  0.047078)
  8:   3167.74   0.036144  182.66  0.003561  (-0.056939  0.002773  0.017632)

--------------------------
THERMOCHEMISTRY AT 298.15K
--------------------------

Temperature         ... 298.15 K
Pressure            ... 1.00 atm
Total Mass          ... 27.03 AMU

Throughout the following assumptions are being made:
  (1) The electronic state is orbitally nondegenerate
  (2) There are no thermally accessible electronically excited states
  (3) Hindered rotations indicated by low frequency modes are not
      treated as such but are treated as vibrations and this may
      cause some error
  (4) All equations used are the standard statistical mechanics
      equations for an ideal gas
  (5) All vibrations are strictly harmonic

freq.     448.00  E(vib)   ...       0.17
freq.    2238.61  E(vib)   ...       0.00
freq.    3167.74  E(vib)   ...       0.00

------------
INNER ENERGY
------------

The inner energy is: U= E(el) + E(ZPE) + E(vib) + E(rot) + E(trans)
    E(el)   - is the total energy from the electronic structure calculation
              = E(kin-el) + E(nuc-el) + E(el-el) + E(nuc-nuc)
    E(ZPE)  - the the zero temperature vibrational energy from the frequency calculation
    E(vib)  - the the finite temperature correction to E(ZPE) due to population
              of excited vibrational states
    E(rot)  - is the rotational thermal energy
    E(trans)- is the translational thermal energy

Summary of contributions to the inner energy U:
Electronic energy                ...    -93.29824469 Eh
Zero point energy                ...      0.01333720 Eh       8.37 kcal/mol
Thermal vibrational correction   ...      0.00026575 Eh       0.17 kcal/mol
Thermal rotational correction    ...      0.00141627 Eh       0.89 kcal/mol
Thermal translational correction ...      0.00141627 Eh       0.89 kcal/mol
-----------------------------------------------------------------------
Total thermal energy                    -93.28180920 Eh

Summary of corrections to the electronic energy:
(perhaps to be used in another calculation)
Total thermal correction                  0.00309829 Eh       1.94 kcal/mol
Non-thermal (ZPE) correction              0.01333720 Eh       8.37 kcal/mol
-----------------------------------------------------------------------
Total correction                          0.01643549 Eh      10.31 kcal/mol

--------
ENTHALPY
--------

The enthalpy is H = U + kB*T
                kB is Boltzmann's constant
Total free energy                 ...    -93.28180920 Eh
Thermal Enthalpy correction       ...      0.00094421 Eh       0.59 kcal/mol
-----------------------------------------------------------------------
Total Enthalpy                    ...    -93.28086499 Eh

Note: Rotational entropy computed according to Herzberg
Infrared and Raman Spectra, Chapter V,1, Van Nostrand Reinhold, 1945
Point Group:  Cs, Symmetry Number:   1
Rotational constants in cm-1:    18.027894     1.798336     1.635218

Vibrational entropy computed according to the QRRHO of S. Grimme
Chem.Eur.J. 2012 18 9955

-------
ENTROPY
-------

The entropy contributions are T*S = T*(S(el)+S(vib)+S(rot)+S(trans))
     S(el)   - electronic entropy
     S(vib)  - vibrational entropy
     S(rot)  - rotational entropy
     S(trans)- translational entropy
The entropies will be listed as multiplied by the temperature to get
units of energy

Electronic entropy                ...      0.00000000 Eh      0.00 kcal/mol
Vibrational entropy               ...      0.00038189 Eh      0.24 kcal/mol
Rotational entropy                ...      0.00763635 Eh      4.79 kcal/mol
Translational entropy             ...      0.01701823 Eh     10.68 kcal/mol
-----------------------------------------------------------------------
Final entropy term                ...      0.02503647 Eh     15.71 kcal/mol

In case the symmetry of your molecule has not been determined correctly
or in case you have a reason to use a different symmetry number we print
out the resulting rotational entropy values for sn=1,12 :
 --------------------------------------------------------
|  sn= 1 | S(rot)=       0.00763635 Eh      4.79 kcal/mol|
|  sn= 2 | S(rot)=       0.00698189 Eh      4.38 kcal/mol|
|  sn= 3 | S(rot)=       0.00659906 Eh      4.14 kcal/mol|
|  sn= 4 | S(rot)=       0.00632743 Eh      3.97 kcal/mol|
|  sn= 5 | S(rot)=       0.00611675 Eh      3.84 kcal/mol|
|  sn= 6 | S(rot)=       0.00594460 Eh      3.73 kcal/mol|
|  sn= 7 | S(rot)=       0.00579906 Eh      3.64 kcal/mol|
|  sn= 8 | S(rot)=       0.00567298 Eh      3.56 kcal/mol|
|  sn= 9 | S(rot)=       0.00556177 Eh      3.49 kcal/mol|
|  sn=10 | S(rot)=       0.00546229 Eh      3.43 kcal/mol|
|  sn=11 | S(rot)=       0.00537230 Eh      3.37 kcal/mol|
|  sn=12 | S(rot)=       0.00529015 Eh      3.32 kcal/mol|
 --------------------------------------------------------

-------------------
GIBBS FREE ENERGY
-------------------

The Gibbs free energy is G = H - T*S

Total enthalpy                    ...    -93.28086499 Eh
Total entropy correction          ...     -0.02503647 Eh    -15.71 kcal/mol
-----------------------------------------------------------------------
Final Gibbs free energy         ...    -93.30590147 Eh

For completeness - the Gibbs free energy minus the electronic energy
G-E(el)                           ...     -0.00765677 Eh     -4.80 kcal/mol

                             ****ORCA TERMINATED NORMALLY****
TOTAL RUN TIME: 0 days 0 hours 1 minutes 4 seconds 986 msec
