                         Program Version 5.0.3 -  RELEASE  -
|  1> ! PAL5 PBE0 NumFreq
|  2> %method
|  3>         method DFT
|  4>         runtyp Energy
|  5> end
|  6> %basis
|  7>         basis "def2-TZVP"
|  8> end
|  9> %coords
| 10>         CTyp xyz
| 11>         Charge 0
| 12>         Mult 1
| 13>         Units Angs
| 14>         coords
| 15> 	#135
| 16> 	C     -1.011290    0.960957    0.000001
| 17> 	N     -0.195630    0.920623   -0.819801
| 18> 	H     -2.068270    1.013340    0.000003
| 19> 	end
| 20> end
| 21> %eprnmr
| 22>         NMRShielding 1
| 23>         Nuclei = all N {shift}
| 24>         Nuclei = all C {shift}
| 25>         Nuclei = all H {shift}
| 26> endd                         ****END OF INPUT****

CARTESIAN COORDINATES (ANGSTROEM)
---------------------------------
  C     -1.011290    0.960957    0.000001
  N     -0.195630    0.920623   -0.819801
  H     -2.068270    1.013340    0.000003

 Total Charge           Charge          ....    0
 Multiplicity           Mult            ....    1
 Number of Electrons    NEL             ....   14
 Basis Dimension        Dim             ....   68

ORBITAL ENERGIES
----------------

  NO   OCC          E(Eh)            E(eV)
   0   2.0000     -14.418689      -392.3525
   1   2.0000     -10.275076      -279.5990
   2   2.0000      -0.959190       -26.1009
   3   2.0000      -0.612853       -16.6766
   4   2.0000      -0.416053       -11.3214
   5   2.0000      -0.385337       -10.4855
   6   2.0000      -0.377521       -10.2729
   7   0.0000      -0.054188        -1.4745
   8   0.0000       0.008592         0.2338
   9   0.0000       0.089563         2.4371
  10   0.0000       0.126153         3.4328
  11   0.0000       0.215927         5.8757

MULLIKEN ATOMIC CHARGES
-----------------------
   0 C :   -0.165307
   1 N :   -0.041852
   2 H :    0.207159
Sum of atomic charges:    0.0000000

LOEWDIN ATOMIC CHARGES
----------------------
   0 C :   -0.202714
   1 N :    0.068397
   2 H :    0.134316

  Mayer bond orders larger than 0.100000
B(  0-C ,  1-N ) :   2.9486 B(  0-C ,  2-H ) :   0.9359

FINAL SINGLE POINT ENERGY       -93.324933942177

DIPOLE MOMENT
-------------
                                X             Y             Z
Electronic contribution:      0.41896      -0.02076       0.01795
Nuclear contribution   :     -1.34887       0.06681       0.39645
                        -----------------------------------------
Total Dipole Moment    :     -0.92991       0.04605       0.41439
                        -----------------------------------------
Magnitude (a.u.)       :      1.01910
Magnitude (Debye)      :      2.59036

CHEMICAL SHIELDING SUMMARY (ppm)
--------------------------------

  Nucleus  Element    Isotropic     Anisotropy
  -------  -------  ------------   ------------
      1       N         -128.102       -427.213
      0       C           66.519        312.862
      2       H           26.600         13.646

VIBRATIONAL FREQUENCIES
-----------------------

Scaling factor for frequencies =  1.000000000 (already applied!)

   0:         0.00 cm**-1
   1:         0.00 cm**-1
   2:         0.00 cm**-1
   3:         0.00 cm**-1
   4:         0.00 cm**-1
   5:         0.00 cm**-1
   6:       494.53 cm**-1
   7:      2179.18 cm**-1
   8:      3519.29 cm**-1

IR SPECTRUM
-----------

 Mode   freq       eps      Int      T**2         TX        TY        TZ
       cm**-1   L/(mol*cm) km/mol    a.u.
----------------------------------------------------------------------------
  6:    494.53   0.020669  104.45  0.013043  (-0.038770  0.001903  0.107407)
  7:   2179.18   0.001069    5.40  0.000153  ( 0.005589 -0.000275  0.011032)
  8:   3519.29   0.015521   78.43  0.001376  (-0.037010  0.001849  0.001762)

--------------------------
THERMOCHEMISTRY AT 298.15K
--------------------------

Temperature         ... 298.15 K
Pressure            ... 1.00 atm
Total Mass          ... 27.03 AMU

Throughout the following assumptions are being made:
  (1) The electronic state is orbitally nondegenerate
  (2) There are no thermally accessible electronically excited states
  (3) Hindered rotations indicated by low frequency modes are not
      treated as such but are treated as vibrations and this may
      cause some error
  (4) All equations used are the standard statistical mechanics
      equations for an ideal gas
  (5) All vibrations are strictly harmonic

freq.     494.53  E(vib)   ...       0.14
freq.    2179.18  E(vib)   ...       0.00
freq.    3519.29  E(vib)   ...       0.00

------------
INNER ENERGY
------------

The inner energy is: U= E(el) + E(ZPE) + E(vib) + E(rot) + E(trans)
    E(el)   - is the total energy from the electronic structure calculation
              = E(kin-el) + E(nuc-el) + E(el-el) + E(nuc-nuc)
    E(ZPE)  - the the zero temperature vibrational energy from the frequency calculation
    E(vib)  - the the finite temperature correction to E(ZPE) due to population
              of excited vibrational states
    E(rot)  - is the rotational thermal energy
    E(trans)- is the translational thermal energy

Summary of contributions to the inner energy U:
Electronic energy                ...    -93.32493394 Eh
Zero point energy                ...      0.01410869 Eh       8.85 kcal/mol
Thermal vibrational correction   ...      0.00022847 Eh       0.14 kcal/mol
Thermal rotational correction    ...      0.00141627 Eh       0.89 kcal/mol
Thermal translational correction ...      0.00141627 Eh       0.89 kcal/mol
-----------------------------------------------------------------------
Total thermal energy                    -93.30776424 Eh

Summary of corrections to the electronic energy:
(perhaps to be used in another calculation)
Total thermal correction                  0.00306101 Eh       1.92 kcal/mol
Non-thermal (ZPE) correction              0.01410869 Eh       8.85 kcal/mol
-----------------------------------------------------------------------
Total correction                          0.01716971 Eh      10.77 kcal/mol

--------
ENTHALPY
--------

The enthalpy is H = U + kB*T
                kB is Boltzmann's constant
Total free energy                 ...    -93.30776424 Eh
Thermal Enthalpy correction       ...      0.00094421 Eh       0.59 kcal/mol
-----------------------------------------------------------------------
Total Enthalpy                    ...    -93.30682003 Eh

Note: Rotational entropy computed according to Herzberg
Infrared and Raman Spectra, Chapter V,1, Van Nostrand Reinhold, 1945
Point Group:  Cs, Symmetry Number:   1
Rotational constants in cm-1:    37.756452     1.593618     1.529079

Vibrational entropy computed according to the QRRHO of S. Grimme
Chem.Eur.J. 2012 18 9955

-------
ENTROPY
-------

The entropy contributions are T*S = T*(S(el)+S(vib)+S(rot)+S(trans))
     S(el)   - electronic entropy
     S(vib)  - vibrational entropy
     S(rot)  - rotational entropy
     S(trans)- translational entropy
The entropies will be listed as multiplied by the temperature to get
units of energy

Electronic entropy                ...      0.00000000 Eh      0.00 kcal/mol
Vibrational entropy               ...      0.00032004 Eh      0.20 kcal/mol
Rotational entropy                ...      0.00737610 Eh      4.63 kcal/mol
Translational entropy             ...      0.01701823 Eh     10.68 kcal/mol
-----------------------------------------------------------------------
Final entropy term                ...      0.02471438 Eh     15.51 kcal/mol

In case the symmetry of your molecule has not been determined correctly
or in case you have a reason to use a different symmetry number we print
out the resulting rotational entropy values for sn=1,12 :
 --------------------------------------------------------
|  sn= 1 | S(rot)=       0.00737610 Eh      4.63 kcal/mol|
|  sn= 2 | S(rot)=       0.00672164 Eh      4.22 kcal/mol|
|  sn= 3 | S(rot)=       0.00633881 Eh      3.98 kcal/mol|
|  sn= 4 | S(rot)=       0.00606718 Eh      3.81 kcal/mol|
|  sn= 5 | S(rot)=       0.00585650 Eh      3.67 kcal/mol|
|  sn= 6 | S(rot)=       0.00568435 Eh      3.57 kcal/mol|
|  sn= 7 | S(rot)=       0.00553881 Eh      3.48 kcal/mol|
|  sn= 8 | S(rot)=       0.00541273 Eh      3.40 kcal/mol|
|  sn= 9 | S(rot)=       0.00530152 Eh      3.33 kcal/mol|
|  sn=10 | S(rot)=       0.00520204 Eh      3.26 kcal/mol|
|  sn=11 | S(rot)=       0.00511205 Eh      3.21 kcal/mol|
|  sn=12 | S(rot)=       0.00502990 Eh      3.16 kcal/mol|
 --------------------------------------------------------

-------------------
GIBBS FREE ENERGY
-------------------

The Gibbs free energy is G = H - T*S

Total enthalpy                    ...    -93.30682003 Eh
Total entropy correction          ...     -0.02471438 Eh    -15.51 kcal/mol
-----------------------------------------------------------------------
Final Gibbs free energy         ...    -93.33153440 Eh

For completeness - the Gibbs free energy minus the electronic energy
G-E(el)                           ...     -0.00660046 Eh     -4.14 kcal/mol

                             ****ORCA TERMINATED NORMALLY****
TOTAL RUN TIME: 0 days 0 hours 1 minutes 6 seconds 765 msec
