                         Program Version 5.0.3 -  RELEASE  -
|  1> ! PBE0 NumFreq
|  2> %method
|  3>         method DFT
|  4>         runtyp Energy
|  5> end
|  6> %basis
|  7>         basis "def2-TZVP"
|  8> end
|  9> %coords
| 10>         CTyp xyz
| 11>         Charge 0
| 12>         Mult 1
| 13>         Units Angs
| 14>         coords
| 15> 	#135
| 16> 	N     -1.011290    0.960957    0.000001
| 17> 	C     -0.195630    0.920623   -0.819801
| 18> 	H     -2.068270    1.013340    0.000003
| 19> 	end
| 20> end
| 21> %eprnmr
| 22>         NMRShielding 1
| 23>         Nuclei = all N {shift}
| 24>         Nuclei = all C {shift}
| 25>         Nuclei = all H {shift}
| 26> end
| 27>
| 28>                          ****END OF INPUT****

CARTESIAN COORDINATES (ANGSTROEM)
---------------------------------
  N     -1.011290    0.960957    0.000001
  C     -0.195630    0.920623   -0.819801
  H     -2.068270    1.013340    0.000003

 Total Charge           Charge          ....    0
 Multiplicity           Mult            ....    1
 Number of Electrons    NEL             ....   14
 Basis Dimension        Dim             ....   68

ORBITAL ENERGIES
----------------

  NO   OCC          E(Eh)            E(eV)
   0   2.0000     -14.423976      -392.4963
   1   2.0000     -10.280652      -279.7508
   2   2.0000      -0.990220       -26.9452
   3   2.0000      -0.645176       -17.5561
   4   2.0000      -0.416594       -11.3361
   5   2.0000      -0.401578       -10.9275
   6   2.0000      -0.336611        -9.1597
   7   0.0000      -0.036548        -0.9945
   8   0.0000       0.020005         0.5444
   9   0.0000       0.047200         1.2844
  10   0.0000       0.165934         4.5153
  11   0.0000       0.220392         5.9972

MULLIKEN ATOMIC CHARGES
-----------------------
   0 N :   -0.142493
   1 C :   -0.165857
   2 H :    0.308350
Sum of atomic charges:    0.0000000

LOEWDIN ATOMIC CHARGES
----------------------
   0 N :    0.019532
   1 C :   -0.231751
   2 H :    0.212219

  Mayer bond orders larger than 0.100000
B(  0-N ,  1-C ) :   2.4186 B(  0-N ,  2-H ) :   0.8418

FINAL SINGLE POINT ENERGY       -93.312277262882

DIPOLE MOMENT
-------------
                                X             Y             Z
Electronic contribution:      0.22470      -0.01114      -0.05885
Nuclear contribution   :     -1.29652       0.06422       0.34382
                        -----------------------------------------
Total Dipole Moment    :     -1.07182       0.05308       0.28497
                        -----------------------------------------
Magnitude (a.u.)       :      1.11032
Magnitude (Debye)      :      2.82222

CHEMICAL SHIELDING SUMMARY (ppm)
--------------------------------

  Nucleus  Element    Isotropic     Anisotropy
  -------  -------  ------------   ------------
      0       N           80.886        359.939
      1       C          -34.979        391.867
      2       H           24.165         15.737

VIBRATIONAL FREQUENCIES
-----------------------

Scaling factor for frequencies =  1.000000000 (already applied!)

   0:         0.00 cm**-1
   1:         0.00 cm**-1
   2:         0.00 cm**-1
   3:         0.00 cm**-1
   4:         0.00 cm**-1
   5:         0.00 cm**-1
   6:       837.28 cm**-1
   7:      2190.34 cm**-1
   8:      3158.23 cm**-1

IR SPECTRUM
-----------

 Mode   freq       eps      Int      T**2         TX        TY        TZ
       cm**-1   L/(mol*cm) km/mol    a.u.
----------------------------------------------------------------------------
  6:    837.28   0.034750  175.61  0.012952  (-0.034656  0.001701  0.108387)
  7:   2190.34   0.015092   76.27  0.002150  (-0.022858  0.001136  0.040330)
  8:   3158.23   0.046117  233.06  0.004557  (-0.066209  0.003268  0.012747)

--------------------------
THERMOCHEMISTRY AT 298.15K
--------------------------

Temperature         ... 298.15 K
Pressure            ... 1.00 atm
Total Mass          ... 27.03 AMU

Throughout the following assumptions are being made:
  (1) The electronic state is orbitally nondegenerate
  (2) There are no thermally accessible electronically excited states
  (3) Hindered rotations indicated by low frequency modes are not
      treated as such but are treated as vibrations and this may
      cause some error
  (4) All equations used are the standard statistical mechanics
      equations for an ideal gas
  (5) All vibrations are strictly harmonic

freq.     837.28  E(vib)   ...       0.04
freq.    2190.34  E(vib)   ...       0.00
freq.    3158.23  E(vib)   ...       0.00

------------
INNER ENERGY
------------

The inner energy is: U= E(el) + E(ZPE) + E(vib) + E(rot) + E(trans)
    E(el)   - is the total energy from the electronic structure calculation
              = E(kin-el) + E(nuc-el) + E(el-el) + E(nuc-nuc)
    E(ZPE)  - the the zero temperature vibrational energy from the frequency calculation
    E(vib)  - the the finite temperature correction to E(ZPE) due to population
              of excited vibrational states
    E(rot)  - is the rotational thermal energy
    E(trans)- is the translational thermal energy

Summary of contributions to the inner energy U:
Electronic energy                ...    -93.31227726 Eh
Zero point energy                ...      0.01409241 Eh       8.84 kcal/mol
Thermal vibrational correction   ...      0.00006857 Eh       0.04 kcal/mol
Thermal rotational correction    ...      0.00141627 Eh       0.89 kcal/mol
Thermal translational correction ...      0.00141627 Eh       0.89 kcal/mol
-----------------------------------------------------------------------
Total thermal energy                    -93.29528373 Eh

Summary of corrections to the electronic energy:
(perhaps to be used in another calculation)
Total thermal correction                  0.00290112 Eh       1.82 kcal/mol
Non-thermal (ZPE) correction              0.01409241 Eh       8.84 kcal/mol
-----------------------------------------------------------------------
Total correction                          0.01699353 Eh      10.66 kcal/mol

--------
ENTHALPY
--------

The enthalpy is H = U + kB*T
                kB is Boltzmann's constant
Total free energy                 ...    -93.29528373 Eh
Thermal Enthalpy correction       ...      0.00094421 Eh       0.59 kcal/mol
-----------------------------------------------------------------------
Total Enthalpy                    ...    -93.29433952 Eh

Note: Rotational entropy computed according to Herzberg
Infrared and Raman Spectra, Chapter V,1, Van Nostrand Reinhold, 1945
Point Group:  Cs, Symmetry Number:   1
Rotational constants in cm-1:    36.904581     1.630404     1.561422

Vibrational entropy computed according to the QRRHO of S. Grimme
Chem.Eur.J. 2012 18 9955

-------
ENTROPY
-------

The entropy contributions are T*S = T*(S(el)+S(vib)+S(rot)+S(trans))
     S(el)   - electronic entropy
     S(vib)  - vibrational entropy
     S(rot)  - rotational entropy
     S(trans)- translational entropy
The entropies will be listed as multiplied by the temperature to get
units of energy

Electronic entropy                ...      0.00000000 Eh      0.00 kcal/mol
Vibrational entropy               ...      0.00008541 Eh      0.05 kcal/mol
Rotational entropy                ...      0.00736622 Eh      4.62 kcal/mol
Translational entropy             ...      0.01701823 Eh     10.68 kcal/mol
-----------------------------------------------------------------------
Final entropy term                ...      0.02446986 Eh     15.36 kcal/mol

In case the symmetry of your molecule has not been determined correctly
or in case you have a reason to use a different symmetry number we print
out the resulting rotational entropy values for sn=1,12 :
 --------------------------------------------------------
|  sn= 1 | S(rot)=       0.00736622 Eh      4.62 kcal/mol|
|  sn= 2 | S(rot)=       0.00671176 Eh      4.21 kcal/mol|
|  sn= 3 | S(rot)=       0.00632893 Eh      3.97 kcal/mol|
|  sn= 4 | S(rot)=       0.00605730 Eh      3.80 kcal/mol|
|  sn= 5 | S(rot)=       0.00584662 Eh      3.67 kcal/mol|
|  sn= 6 | S(rot)=       0.00567447 Eh      3.56 kcal/mol|
|  sn= 7 | S(rot)=       0.00552892 Eh      3.47 kcal/mol|
|  sn= 8 | S(rot)=       0.00540285 Eh      3.39 kcal/mol|
|  sn= 9 | S(rot)=       0.00529164 Eh      3.32 kcal/mol|
|  sn=10 | S(rot)=       0.00519216 Eh      3.26 kcal/mol|
|  sn=11 | S(rot)=       0.00510217 Eh      3.20 kcal/mol|
|  sn=12 | S(rot)=       0.00502001 Eh      3.15 kcal/mol|
 --------------------------------------------------------

-------------------
GIBBS FREE ENERGY
-------------------

The Gibbs free energy is G = H - T*S

Total enthalpy                    ...    -93.29433952 Eh
Total entropy correction          ...     -0.02446986 Eh    -15.36 kcal/mol
-----------------------------------------------------------------------
Final Gibbs free energy         ...    -93.31880938 Eh

For completeness - the Gibbs free energy minus the electronic energy
G-E(el)                           ...     -0.00653212 Eh     -4.10 kcal/mol

                             ****ORCA TERMINATED NORMALLY****
TOTAL RUN TIME: 0 days 0 hours 3 minutes 8 seconds 874 msec
