                         Program Version 5.0.3 -  RELEASE  -
|  1> ! PAL5 PBE0 NumFreq
|  2> %method
|  3>         method DFT
|  4>         runtyp Energy
|  5> end
|  6> %basis
|  7>         basis "def2-TZVP"
|  8> end
|  9> %coords
| 10>         CTyp xyz
| 11>         Charge 0
| 12>         Mult 1
| 13>         Units Angs
| 14>         coords
| 15> 	#53.3
| 16> 	C      0.901163    0.213223   -0.028373
| 17> 	C      2.433052    0.225083   -0.148833
| 18> 	H      0.575752   -0.610197    0.611338
| 19> 	H      0.442773    0.090317   -1.012197
| 20> 	H      0.545988    1.150789    0.405264
| 21> 	H      2.763812   -0.521759   -0.874150
| 22> 	H      2.781611    1.206533   -0.477840
| 23> 	H      2.892631   -0.000931    0.815945
| 24> 	end
| 25> end
| 26> %eprnmr
| 27>         NMRShielding 1
| 28>         Nuclei = all C {shift}
| 29>         Nuclei = all H {shift}
| 30> endd                         ****END OF INPUT****

CARTESIAN COORDINATES (ANGSTROEM)
---------------------------------
  C      0.901163    0.213223   -0.028373
  C      2.433052    0.225083   -0.148833
  H      0.575752   -0.610197    0.611338
  H      0.442773    0.090317   -1.012197
  H      0.545988    1.150789    0.405264
  H      2.763812   -0.521759   -0.874150
  H      2.781611    1.206533   -0.477840
  H      2.892631   -0.000931    0.815945

 Total Charge           Charge          ....    0
 Multiplicity           Mult            ....    1
 Number of Electrons    NEL             ....   18
 Basis Dimension        Dim             ....   98

ORBITAL ENERGIES
----------------

  NO   OCC          E(Eh)            E(eV)
   0   2.0000     -10.207132      -277.7502
   1   2.0000     -10.206907      -277.7441
   2   2.0000      -0.773255       -21.0413
   3   2.0000      -0.631215       -17.1762
   4   2.0000      -0.448378       -12.2010
   5   2.0000      -0.448368       -12.2007
   6   2.0000      -0.373827       -10.1724
   7   2.0000      -0.353317        -9.6142
   8   2.0000      -0.353300        -9.6138
   9   0.0000       0.052391         1.4256
  10   0.0000       0.091865         2.4998
  11   0.0000       0.112992         3.0747
  12   0.0000       0.113001         3.0749
  13   0.0000       0.148167         4.0318

MULLIKEN ATOMIC CHARGES
-----------------------
   0 C :   -0.344871
   1 C :   -0.344593
   2 H :    0.114918
   3 H :    0.114916
   4 H :    0.114952
   5 H :    0.114834
   6 H :    0.114925
   7 H :    0.114919
Sum of atomic charges:   -0.0000000

LOEWDIN ATOMIC CHARGES
----------------------
   0 C :   -0.348721
   1 C :   -0.348693
   2 H :    0.116234
   3 H :    0.116239
   4 H :    0.116247
   5 H :    0.116241
   6 H :    0.116219
   7 H :    0.116233

  Mayer bond orders larger than 0.100000
B(  0-C ,  1-C ) :   1.0015 B(  0-C ,  2-H ) :   0.9739 B(  0-C ,  3-H ) :   0.9739
B(  0-C ,  4-H ) :   0.9739 B(  1-C ,  5-H ) :   0.9739 B(  1-C ,  6-H ) :   0.9739
B(  1-C ,  7-H ) :   0.9739

FINAL SINGLE POINT ENERGY       -79.748946024037

DIPOLE MOMENT
-------------
                                X             Y             Z
Electronic contribution:      0.00004       0.00018      -0.00001
Nuclear contribution   :     -0.00006      -0.00012      -0.00002
                        -----------------------------------------
Total Dipole Moment    :     -0.00002       0.00005      -0.00003
                        -----------------------------------------
Magnitude (a.u.)       :      0.00006
Magnitude (Debye)      :      0.00016

CHEMICAL SHIELDING SUMMARY (ppm)
--------------------------------

  Nucleus  Element    Isotropic     Anisotropy
  -------  -------  ------------   ------------
      0       C          179.659         15.054
      1       C          179.653         15.063
      2       H           30.816          9.080
      3       H           30.816          9.078
      4       H           30.814          9.076
      5       H           30.816          9.077
      6       H           30.817          9.076
      7       H           30.817          9.076

VIBRATIONAL FREQUENCIES
-----------------------

Scaling factor for frequencies =  1.000000000 (already applied!)

   0:         0.00 cm**-1
   1:         0.00 cm**-1
   2:         0.00 cm**-1
   3:         0.00 cm**-1
   4:         0.00 cm**-1
   5:         0.00 cm**-1
   6:       255.04 cm**-1
   7:       844.76 cm**-1
   8:       845.34 cm**-1
   9:       996.13 cm**-1
  10:      1209.45 cm**-1
  11:      1209.77 cm**-1
  12:      1385.35 cm**-1
  13:      1401.29 cm**-1
  14:      1492.09 cm**-1
  15:      1492.79 cm**-1
  16:      1496.72 cm**-1
  17:      1497.22 cm**-1
  18:      3045.63 cm**-1
  19:      3046.02 cm**-1
  20:      3112.25 cm**-1
  21:      3113.29 cm**-1
  22:      3135.97 cm**-1
  23:      3136.82 cm**-1

IR SPECTRUM
-----------

 Mode   freq       eps      Int      T**2         TX        TY        TZ
       cm**-1   L/(mol*cm) km/mol    a.u.
----------------------------------------------------------------------------
  6:    255.04   0.000012    0.06  0.000015  ( 0.000061 -0.003671  0.001034)
  7:    844.76   0.001119    5.65  0.000413  (-0.000831  0.018779 -0.007740)
  8:    845.34   0.001126    5.69  0.000416  ( 0.001683  0.008623  0.018394)
  9:    996.13   0.000000    0.00  0.000000  (-0.000010  0.000174  0.000012)
 10:   1209.45   0.000004    0.02  0.000001  ( 0.000050 -0.000006  0.001054)
 11:   1209.77   0.000017    0.09  0.000004  (-0.000053  0.002021  0.000505)
 12:   1385.35   0.000682    3.45  0.000154  (-0.012347 -0.000287  0.001095)
 13:   1401.29   0.000000    0.00  0.000000  (-0.000189  0.000016 -0.000112)
 14:   1492.09   0.000364    1.84  0.000076  (-0.000505 -0.006391 -0.005916)
 15:   1492.79   0.000329    1.66  0.000069  (-0.000284  0.008001 -0.002154)
 16:   1496.72   0.001854    9.37  0.000387  (-0.000824  0.017445 -0.009029)
 17:   1497.22   0.001711    8.65  0.000357  ( 0.001547  0.009190  0.016427)
 18:   3045.63   0.010247   51.78  0.001050  (-0.032310 -0.000494  0.002405)
 19:   3046.02   0.000277    1.40  0.000028  (-0.005321 -0.000084  0.000213)
 20:   3112.25   0.000002    0.01  0.000000  ( 0.000219  0.000413 -0.000092)
 21:   3113.29   0.000002    0.01  0.000000  (-0.000041 -0.000328 -0.000218)
 22:   3135.97   0.009336   47.18  0.000929  ( 0.001844  0.018186  0.024390)
 23:   3136.82   0.009661   48.82  0.000961  ( 0.001466 -0.025002  0.018271)

--------------------------
THERMOCHEMISTRY AT 298.15K
--------------------------

Temperature         ... 298.15 K
Pressure            ... 1.00 atm
Total Mass          ... 30.07 AMU

Throughout the following assumptions are being made:
  (1) The electronic state is orbitally nondegenerate
  (2) There are no thermally accessible electronically excited states
  (3) Hindered rotations indicated by low frequency modes are not
      treated as such but are treated as vibrations and this may
      cause some error
  (4) All equations used are the standard statistical mechanics
      equations for an ideal gas
  (5) All vibrations are strictly harmonic

freq.     255.04  E(vib)   ...       0.30
freq.     844.76  E(vib)   ...       0.04
freq.     845.34  E(vib)   ...       0.04
freq.     996.13  E(vib)   ...       0.02
freq.    1209.45  E(vib)   ...       0.01
freq.    1209.77  E(vib)   ...       0.01
freq.    1385.35  E(vib)   ...       0.00
freq.    1401.29  E(vib)   ...       0.00
freq.    1492.09  E(vib)   ...       0.00
freq.    1492.79  E(vib)   ...       0.00
freq.    1496.72  E(vib)   ...       0.00
freq.    1497.22  E(vib)   ...       0.00
freq.    3045.63  E(vib)   ...       0.00
freq.    3046.02  E(vib)   ...       0.00
freq.    3112.25  E(vib)   ...       0.00
freq.    3113.29  E(vib)   ...       0.00
freq.    3135.97  E(vib)   ...       0.00
freq.    3136.82  E(vib)   ...       0.00

------------
INNER ENERGY
------------

The inner energy is: U= E(el) + E(ZPE) + E(vib) + E(rot) + E(trans)
    E(el)   - is the total energy from the electronic structure calculation
              = E(kin-el) + E(nuc-el) + E(el-el) + E(nuc-nuc)
    E(ZPE)  - the the zero temperature vibrational energy from the frequency calculation
    E(vib)  - the the finite temperature correction to E(ZPE) due to population
              of excited vibrational states
    E(rot)  - is the rotational thermal energy
    E(trans)- is the translational thermal energy

Summary of contributions to the inner energy U:
Electronic energy                ...    -79.74894602 Eh
Zero point energy                ...      0.07453237 Eh      46.77 kcal/mol
Thermal vibrational correction   ...      0.00071726 Eh       0.45 kcal/mol
Thermal rotational correction    ...      0.00141627 Eh       0.89 kcal/mol
Thermal translational correction ...      0.00141627 Eh       0.89 kcal/mol
-----------------------------------------------------------------------
Total thermal energy                    -79.67086384 Eh

Summary of corrections to the electronic energy:
(perhaps to be used in another calculation)
Total thermal correction                  0.00354981 Eh       2.23 kcal/mol
Non-thermal (ZPE) correction              0.07453237 Eh      46.77 kcal/mol
-----------------------------------------------------------------------
Total correction                          0.07808218 Eh      49.00 kcal/mol

--------
ENTHALPY
--------

The enthalpy is H = U + kB*T
                kB is Boltzmann's constant
Total free energy                 ...    -79.67086384 Eh
Thermal Enthalpy correction       ...      0.00094421 Eh       0.59 kcal/mol
-----------------------------------------------------------------------
Total Enthalpy                    ...    -79.66991963 Eh

Note: Rotational entropy computed according to Herzberg
Infrared and Raman Spectra, Chapter V,1, Van Nostrand Reinhold, 1945
Point Group:  D3, Symmetry Number:   6
Rotational constants in cm-1:     2.659369     0.665333     0.665327

Vibrational entropy computed according to the QRRHO of S. Grimme
Chem.Eur.J. 2012 18 9955

-------
ENTROPY
-------

The entropy contributions are T*S = T*(S(el)+S(vib)+S(rot)+S(trans))
     S(el)   - electronic entropy
     S(vib)  - vibrational entropy
     S(rot)  - rotational entropy
     S(trans)- translational entropy
The entropies will be listed as multiplied by the temperature to get
units of energy

Electronic entropy                ...      0.00000000 Eh      0.00 kcal/mol
Vibrational entropy               ...      0.00109667 Eh      0.69 kcal/mol
Rotational entropy                ...      0.00774205 Eh      4.86 kcal/mol
Translational entropy             ...      0.01716939 Eh     10.77 kcal/mol
-----------------------------------------------------------------------
Final entropy term                ...      0.02600810 Eh     16.32 kcal/mol

In case the symmetry of your molecule has not been determined correctly
or in case you have a reason to use a different symmetry number we print
out the resulting rotational entropy values for sn=1,12 :
 --------------------------------------------------------
|  sn= 1 | S(rot)=       0.00943379 Eh      5.92 kcal/mol|
|  sn= 2 | S(rot)=       0.00877934 Eh      5.51 kcal/mol|
|  sn= 3 | S(rot)=       0.00839650 Eh      5.27 kcal/mol|
|  sn= 4 | S(rot)=       0.00812488 Eh      5.10 kcal/mol|
|  sn= 5 | S(rot)=       0.00791419 Eh      4.97 kcal/mol|
|  sn= 6 | S(rot)=       0.00774205 Eh      4.86 kcal/mol|
|  sn= 7 | S(rot)=       0.00759650 Eh      4.77 kcal/mol|
|  sn= 8 | S(rot)=       0.00747042 Eh      4.69 kcal/mol|
|  sn= 9 | S(rot)=       0.00735921 Eh      4.62 kcal/mol|
|  sn=10 | S(rot)=       0.00725973 Eh      4.56 kcal/mol|
|  sn=11 | S(rot)=       0.00716974 Eh      4.50 kcal/mol|
|  sn=12 | S(rot)=       0.00708759 Eh      4.45 kcal/mol|
 --------------------------------------------------------

-------------------
GIBBS FREE ENERGY
-------------------

The Gibbs free energy is G = H - T*S

Total enthalpy                    ...    -79.66991963 Eh
Total entropy correction          ...     -0.02600810 Eh    -16.32 kcal/mol
-----------------------------------------------------------------------
Final Gibbs free energy         ...    -79.69592774 Eh

For completeness - the Gibbs free energy minus the electronic energy
G-E(el)                           ...      0.05301829 Eh     33.27 kcal/mol

                             ****ORCA TERMINATED NORMALLY****
TOTAL RUN TIME: 0 days 0 hours 3 minutes 22 seconds 34 msec
