                         Program Version 5.0.3 -  RELEASE  -
|  1> ! PBE0 NumFreq
|  2> %method
|  3>         method DFT
|  4>         runtyp Energy
|  5> end
|  6> %basis
|  7>         basis "def2-TZVP"
|  8> end
|  9> %coords
| 10>         CTyp xyz
| 11>         Charge 0
| 12>         Mult 1
| 13>         Units Angs
| 14>         coords
| 15> 	#60
| 16> 	N     -1.011290    0.960957    0.000001
| 17> 	C     -1.587576    0.989457   -1.003037
| 18> 	H     -2.068270    1.013340    0.000003
| 19> 	end
| 20> end
| 21> %eprnmr
| 22>         NMRShielding 1
| 23>         Nuclei = all N {shift}
| 24>         Nuclei = all C {shift}
| 25>         Nuclei = all H {shift}
| 26> end
| 27>
| 28>                          ****END OF INPUT****

CARTESIAN COORDINATES (ANGSTROEM)
---------------------------------
  N     -1.011290    0.960957    0.000001
  C     -1.587576    0.989457   -1.003037
  H     -2.068270    1.013340    0.000003

 Total Charge           Charge          ....    0
 Multiplicity           Mult            ....    1
 Number of Electrons    NEL             ....   14
 Basis Dimension        Dim             ....   68

ORBITAL ENERGIES
----------------

  NO   OCC          E(Eh)            E(eV)
   0   2.0000     -14.451152      -393.2358
   1   2.0000     -10.296781      -280.1897
   2   2.0000      -1.097700       -29.8699
   3   2.0000      -0.560859       -15.2618
   4   2.0000      -0.496502       -13.5105
   5   2.0000      -0.431141       -11.7319
   6   2.0000      -0.359199        -9.7743
   7   0.0000      -0.023367        -0.6358
   8   0.0000       0.008458         0.2302
   9   0.0000       0.067357         1.8329
  10   0.0000       0.169709         4.6180
  11   0.0000       0.205127         5.5818

MULLIKEN ATOMIC CHARGES
-----------------------
   0 N :   -0.014489
   1 C :   -0.221480
   2 H :    0.235969
Sum of atomic charges:    0.0000000

LOEWDIN ATOMIC CHARGES
----------------------
   0 N :    0.085106
   1 C :   -0.257029
   2 H :    0.171923

  Mayer bond orders larger than 0.100000
B(  0-N ,  1-C ) :   2.1100 B(  0-N ,  2-H ) :   0.5778 B(  1-C ,  2-H ) :   0.4586

FINAL SINGLE POINT ENERGY       -93.258943827478

DIPOLE MOMENT
-------------
                                X             Y             Z
Electronic contribution:      0.43679      -0.02166      -0.14582
Nuclear contribution   :     -0.71274       0.03535       0.42067
                        -----------------------------------------
Total Dipole Moment    :     -0.27595       0.01369       0.27485
                        -----------------------------------------
Magnitude (a.u.)       :      0.38971
Magnitude (Debye)      :      0.99057

CHEMICAL SHIELDING SUMMARY (ppm)
--------------------------------

  Nucleus  Element    Isotropic     Anisotropy
  -------  -------  ------------   ------------
      0       N          -57.844        553.849
      1       C            1.964        408.579
      2       H           39.967         17.955

VIBRATIONAL FREQUENCIES
-----------------------

Scaling factor for frequencies =  1.000000000 (already applied!)

   0:         0.00 cm**-1
   1:         0.00 cm**-1
   2:         0.00 cm**-1
   3:         0.00 cm**-1
   4:         0.00 cm**-1
   5:         0.00 cm**-1
   6:      1426.47 cm**-1
   7:      2224.11 cm**-1
   8:      3610.30 cm**-1

IR SPECTRUM
-----------

 Mode   freq       eps      Int      T**2         TX        TY        TZ
       cm**-1   L/(mol*cm) km/mol    a.u.
----------------------------------------------------------------------------
  6:   1426.47   0.000824    4.17  0.000180  (-0.004515  0.000246  0.012644)
  7:   2224.11   0.006192   31.29  0.000869  ( 0.007653 -0.000379 -0.028461)
  8:   3610.30   0.028543  144.24  0.002467  (-0.043609  0.002143  0.023682)

--------------------------
THERMOCHEMISTRY AT 298.15K
--------------------------

Temperature         ... 298.15 K
Pressure            ... 1.00 atm
Total Mass          ... 27.03 AMU

Throughout the following assumptions are being made:
  (1) The electronic state is orbitally nondegenerate
  (2) There are no thermally accessible electronically excited states
  (3) Hindered rotations indicated by low frequency modes are not
      treated as such but are treated as vibrations and this may
      cause some error
  (4) All equations used are the standard statistical mechanics
      equations for an ideal gas
  (5) All vibrations are strictly harmonic

freq.    1426.47  E(vib)   ...       0.00
freq.    2224.11  E(vib)   ...       0.00
freq.    3610.30  E(vib)   ...       0.00

------------
INNER ENERGY
------------

The inner energy is: U= E(el) + E(ZPE) + E(vib) + E(rot) + E(trans)
    E(el)   - is the total energy from the electronic structure calculation
              = E(kin-el) + E(nuc-el) + E(el-el) + E(nuc-nuc)
    E(ZPE)  - the the zero temperature vibrational energy from the frequency calculation
    E(vib)  - the the finite temperature correction to E(ZPE) due to population
              of excited vibrational states
    E(rot)  - is the rotational thermal energy
    E(trans)- is the translational thermal energy

Summary of contributions to the inner energy U:
Electronic energy                ...    -93.25894383 Eh
Zero point energy                ...      0.01654150 Eh      10.38 kcal/mol
Thermal vibrational correction   ...      0.00000689 Eh       0.00 kcal/mol
Thermal rotational correction    ...      0.00141627 Eh       0.89 kcal/mol
Thermal translational correction ...      0.00141627 Eh       0.89 kcal/mol
-----------------------------------------------------------------------
Total thermal energy                    -93.23956290 Eh

Summary of corrections to the electronic energy:
(perhaps to be used in another calculation)
Total thermal correction                  0.00283943 Eh       1.78 kcal/mol
Non-thermal (ZPE) correction              0.01654150 Eh      10.38 kcal/mol
-----------------------------------------------------------------------
Total correction                          0.01938093 Eh      12.16 kcal/mol

--------
ENTHALPY
--------

The enthalpy is H = U + kB*T
                kB is Boltzmann's constant
Total free energy                 ...    -93.23956290 Eh
Thermal Enthalpy correction       ...      0.00094421 Eh       0.59 kcal/mol
-----------------------------------------------------------------------
Total Enthalpy                    ...    -93.23861869 Eh

Note: Rotational entropy computed according to Herzberg
Infrared and Raman Spectra, Chapter V,1, Van Nostrand Reinhold, 1945
Point Group:  Cs, Symmetry Number:   1
Rotational constants in cm-1:    20.643981     1.946985     1.779186

Vibrational entropy computed according to the QRRHO of S. Grimme
Chem.Eur.J. 2012 18 9955

-------
ENTROPY
-------

The entropy contributions are T*S = T*(S(el)+S(vib)+S(rot)+S(trans))
     S(el)   - electronic entropy
     S(vib)  - vibrational entropy
     S(rot)  - rotational entropy
     S(trans)- translational entropy
The entropies will be listed as multiplied by the temperature to get
units of energy

Electronic entropy                ...      0.00000000 Eh      0.00 kcal/mol
Vibrational entropy               ...      0.00000788 Eh      0.00 kcal/mol
Rotational entropy                ...      0.00749505 Eh      4.70 kcal/mol
Translational entropy             ...      0.01701823 Eh     10.68 kcal/mol
-----------------------------------------------------------------------
Final entropy term                ...      0.02452116 Eh     15.39 kcal/mol

In case the symmetry of your molecule has not been determined correctly
or in case you have a reason to use a different symmetry number we print
out the resulting rotational entropy values for sn=1,12 :
 --------------------------------------------------------
|  sn= 1 | S(rot)=       0.00749505 Eh      4.70 kcal/mol|
|  sn= 2 | S(rot)=       0.00684059 Eh      4.29 kcal/mol|
|  sn= 3 | S(rot)=       0.00645776 Eh      4.05 kcal/mol|
|  sn= 4 | S(rot)=       0.00618614 Eh      3.88 kcal/mol|
|  sn= 5 | S(rot)=       0.00597545 Eh      3.75 kcal/mol|
|  sn= 6 | S(rot)=       0.00580330 Eh      3.64 kcal/mol|
|  sn= 7 | S(rot)=       0.00565776 Eh      3.55 kcal/mol|
|  sn= 8 | S(rot)=       0.00553168 Eh      3.47 kcal/mol|
|  sn= 9 | S(rot)=       0.00542047 Eh      3.40 kcal/mol|
|  sn=10 | S(rot)=       0.00532099 Eh      3.34 kcal/mol|
|  sn=11 | S(rot)=       0.00523100 Eh      3.28 kcal/mol|
|  sn=12 | S(rot)=       0.00514885 Eh      3.23 kcal/mol|
 --------------------------------------------------------

-------------------
GIBBS FREE ENERGY
-------------------

The Gibbs free energy is G = H - T*S

Total enthalpy                    ...    -93.23861869 Eh
Total entropy correction          ...     -0.02452116 Eh    -15.39 kcal/mol
-----------------------------------------------------------------------
Final Gibbs free energy         ...    -93.26313985 Eh

For completeness - the Gibbs free energy minus the electronic energy
G-E(el)                           ...     -0.00419602 Eh     -2.63 kcal/mol

                             ****ORCA TERMINATED NORMALLY****
TOTAL RUN TIME: 0 days 0 hours 3 minutes 29 seconds 710 msec
