                         Program Version 5.0.3 -  RELEASE  -
|  1> ! VWN
|  2> %method
|  3>         method DFT
|  4>         runtyp OPT
|  5> end
|  6>
|  7> %cpcm
|  8>        epsilon 80.4
|  9>        refrac 1.33
| 10>        fepstype cosmo
| 11> end
| 12> %scf
| 13>        MaxIter 500
| 14> end
| 15> %geom
| 16>        MaxIter 500
| 17>        Convergence loose
| 18> end
| 19>
| 20> %basis
| 21>         basis "def2-SVP"
| 22> end
| 23> ! NumFreq
| 24> %elprop
| 25>         Polar 1
| 26> end
| 27> %output
| 28>         XYZFile true
| 29> end
| 30> %coords
| 31>         CTyp xyz
| 32>         Charge -1
| 33>         Mult 1
| 34>         Units Angs
| 35>         coords
| 36> 	O	0	0	0
| 37> 	H	1	0	0
| 38>         end
| 39> end
| 40>
| 41>                          ****END OF INPUT****
 Total Charge           Charge          ....   -1
 Multiplicity           Mult            ....    1
 Number of Electrons    NEL             ....   10
FINAL SINGLE POINT ENERGY       -75.246175746282
FINAL SINGLE POINT ENERGY       -75.246400421532
                    ***********************HURRAY********************

CARTESIAN COORDINATES (ANGSTROEM)
---------------------------------
  O      0.008587    0.000000    0.000000
  H      0.991413    0.000000    0.000000

 Multiplicity           Mult            ....    1
 Number of Electrons    NEL             ....   10
 Basis Dimension        Dim             ....   19

ORBITAL ENERGIES
----------------

  NO   OCC          E(Eh)            E(eV)
   0   2.0000     -18.378723      -500.1105
   1   2.0000      -0.634192       -17.2572
   2   2.0000      -0.196072        -5.3354
   3   2.0000      -0.051379        -1.3981
   4   2.0000      -0.051379        -1.3981
   5   0.0000       0.115811         3.1514
   6   0.0000       0.660649        17.9772
   7   0.0000       0.963138        26.2083
   8   0.0000       0.991905        26.9911
   9   0.0000       0.991905        26.9911

MULLIKEN ATOMIC CHARGES
-----------------------
   0 O :   -1.038665
   1 H :    0.038665
Sum of atomic charges:   -1.0000000

LOEWDIN ATOMIC CHARGES
----------------------
   0 O :   -0.944179
   1 H :   -0.055821

  Mayer bond orders larger than 0.100000
B(  0-O ,  1-H ) :   1.0473

FINAL SINGLE POINT ENERGY       -75.246401246312

DIPOLE MOMENT
-------------
                                X             Y             Z
Electronic contribution:     -0.34601      -0.00000      -0.00000
Nuclear contribution   :      0.86655       0.00000       0.00000
                        -----------------------------------------
Total Dipole Moment    :      0.52054      -0.00000      -0.00000
                        -----------------------------------------
Magnitude (a.u.)       :      0.52054
Magnitude (Debye)      :      1.32311

VIBRATIONAL FREQUENCIES
-----------------------

Scaling factor for frequencies =  1.000000000 (already applied!)

   0:         0.00 cm**-1
   1:         0.00 cm**-1
   2:         0.00 cm**-1
   3:         0.00 cm**-1
   4:         0.00 cm**-1
   5:      3539.97 cm**-1

IR SPECTRUM
-----------

 Mode   freq       eps      Int      T**2         TX        TY        TZ
       cm**-1   L/(mol*cm) km/mol    a.u.
----------------------------------------------------------------------------
  5:   3539.97   0.037331  188.66  0.003291  (-0.057366 -0.000000 -0.000000)

--------------------------
THERMOCHEMISTRY AT 298.15K
--------------------------

Temperature         ... 298.15 K
Pressure            ... 1.00 atm
Total Mass          ... 17.01 AMU
The molecule is recognized as being linear

Throughout the following assumptions are being made:
  (1) The electronic state is orbitally nondegenerate
  (2) There are no thermally accessible electronically excited states
  (3) Hindered rotations indicated by low frequency modes are not
      treated as such but are treated as vibrations and this may
      cause some error
  (4) All equations used are the standard statistical mechanics
      equations for an ideal gas
  (5) All vibrations are strictly harmonic

freq.    3539.97  E(vib)   ...       0.00

------------
INNER ENERGY
------------

The inner energy is: U= E(el) + E(ZPE) + E(vib) + E(rot) + E(trans)
    E(el)   - is the total energy from the electronic structure calculation
              = E(kin-el) + E(nuc-el) + E(el-el) + E(nuc-nuc)
    E(ZPE)  - the the zero temperature vibrational energy from the frequency calculation
    E(vib)  - the the finite temperature correction to E(ZPE) due to population
              of excited vibrational states
    E(rot)  - is the rotational thermal energy
    E(trans)- is the translational thermal energy

Summary of contributions to the inner energy U:
Electronic energy                ...    -75.24640125 Eh
Zero point energy                ...      0.00806465 Eh       5.06 kcal/mol
Thermal vibrational correction   ...      0.00000000 Eh       0.00 kcal/mol
Thermal rotational correction    ...      0.00094418 Eh       0.59 kcal/mol
Thermal translational correction ...      0.00141627 Eh       0.89 kcal/mol
-----------------------------------------------------------------------
Total thermal energy                    -75.23597615 Eh

Summary of corrections to the electronic energy:
(perhaps to be used in another calculation)
Total thermal correction                  0.00236045 Eh       1.48 kcal/mol
Non-thermal (ZPE) correction              0.00806465 Eh       5.06 kcal/mol
-----------------------------------------------------------------------
Total correction                          0.01042510 Eh       6.54 kcal/mol

--------
ENTHALPY
--------

The enthalpy is H = U + kB*T
                kB is Boltzmann's constant
Total free energy                 ...    -75.23597615 Eh
Thermal Enthalpy correction       ...      0.00094421 Eh       0.59 kcal/mol
-----------------------------------------------------------------------
Total Enthalpy                    ...    -75.23503194 Eh

Note: Rotational entropy computed according to Herzberg
Infrared and Raman Spectra, Chapter V,1, Van Nostrand Reinhold, 1945
Point Group:  Cinfv, Symmetry Number:   1
Rotational constants in cm-1:     0.000000    18.404261    18.404261

Vibrational entropy computed according to the QRRHO of S. Grimme
Chem.Eur.J. 2012 18 9955

-------
ENTROPY
-------

The entropy contributions are T*S = T*(S(el)+S(vib)+S(rot)+S(trans))
     S(el)   - electronic entropy
     S(vib)  - vibrational entropy
     S(rot)  - rotational entropy
     S(trans)- translational entropy
The entropies will be listed as multiplied by the temperature to get
units of energy

Electronic entropy                ...      0.00000000 Eh      0.00 kcal/mol
Vibrational entropy               ...      0.00000000 Eh      0.00 kcal/mol
Rotational entropy                ...      0.00323026 Eh      2.03 kcal/mol
Translational entropy             ...      0.01636225 Eh     10.27 kcal/mol
-----------------------------------------------------------------------
Final entropy term                ...      0.01959251 Eh     12.29 kcal/mol

-------------------
GIBBS FREE ENERGY
-------------------

The Gibbs free energy is G = H - T*S

Total enthalpy                    ...    -75.23503194 Eh
Total entropy correction          ...     -0.01959251 Eh    -12.29 kcal/mol
-----------------------------------------------------------------------
Final Gibbs free energy         ...    -75.25462445 Eh

For completeness - the Gibbs free energy minus the electronic energy
G-E(el)                           ...     -0.00822320 Eh     -5.16 kcal/mol

                             ****ORCA TERMINATED NORMALLY****
TOTAL RUN TIME: 0 days 0 hours 3 minutes 35 seconds 353 msec
