                         Program Version 4.2.1 -  RELEASE  -
|  1> ! PBE
|  2>
|  3> %method
|  4>         method DFT
|  5>         runtyp OPT
|  6> end
|  7>
|  8> %basis
|  9>         basis "def2-TZVP"
| 10> end
| 11> ! NumFreq
| 12> %output
| 13>         XYZFile true
| 14> end
| 15> %coords
| 16>         CTyp xyz
| 17>         Charge -1
| 18>         Mult 1
| 19>         Units Angs
| 20>         coords
| 21>         P       -1.3964703605      0.5346218729     -0.0392481365
| 22> 	H        0.1725606238      0.5123737189     -0.0821591799
| 23> 	H       -1.9650463708      1.2081038033      1.2597276053
| 24>         end
| 25> end
| 26>
| 27>                          ****END OF INPUT****
 Total Charge           Charge          ....   -1
 Multiplicity           Mult            ....    1
 Number of Electrons    NEL             ....   18
FINAL SINGLE POINT ENERGY      -342.362402247274
FINAL SINGLE POINT ENERGY      -342.376082745864
FINAL SINGLE POINT ENERGY      -342.380707448776
FINAL SINGLE POINT ENERGY      -342.381143129628
FINAL SINGLE POINT ENERGY      -342.381163010878
FINAL SINGLE POINT ENERGY      -342.381163907642
                    ***********************HURRAY********************

CARTESIAN COORDINATES (ANGSTROEM)
---------------------------------
  P     -1.454485    0.497267   -0.111297
  H     -0.025514    0.605045    0.096580
  H     -1.708958    1.152788    1.153037

 Multiplicity           Mult            ....    1
 Number of Electrons    NEL             ....   18
 Basis Dimension        Dim             ....   49

ORBITAL ENERGIES
----------------

  NO   OCC          E(Eh)            E(eV)
   0   2.0000     -76.006088     -2068.2308
   1   2.0000      -6.008303      -163.4942
   2   2.0000      -4.224724      -114.9606
   3   2.0000      -4.223439      -114.9256
   4   2.0000      -4.221683      -114.8778
   5   2.0000      -0.279758        -7.6126
   6   2.0000      -0.077601        -2.1116
   7   2.0000      -0.003504        -0.0954
   8   2.0000       0.088120         2.3979
   9   0.0000       0.227251         6.1838
  10   0.0000       0.228901         6.2287
  11   0.0000       0.369861        10.0644
  12   0.0000       0.396124        10.7791
  13   0.0000       0.445878        12.1330

MULLIKEN ATOMIC CHARGES
-----------------------
   0 P :   -0.892961
   1 H :   -0.050836
   2 H :   -0.056202
Sum of atomic charges:   -1.0000000

LOEWDIN ATOMIC CHARGES
----------------------
   0 P :   -0.865476
   1 H :   -0.067259
   2 H :   -0.067264

  Mayer bond orders larger than 0.100000
B(  0-P ,  1-H ) :   0.9835 B(  0-P ,  2-H ) :   0.9830

FINAL SINGLE POINT ENERGY      -342.381163905521

DIPOLE MOMENT
-------------
                                X             Y             Z
Electronic contribution:     -1.02720      -0.67671      -1.28974
Nuclear contribution   :      1.06661       0.69319       1.33698
                        -----------------------------------------
Total Dipole Moment    :      0.03942       0.01648       0.04724
                        -----------------------------------------
Magnitude (a.u.)       :      0.06369
Magnitude (Debye)      :      0.16190

VIBRATIONAL FREQUENCIES
-----------------------

Scaling factor for frequencies =  1.000000000 (already applied!)

   0:         0.00 cm**-1
   1:         0.00 cm**-1
   2:         0.00 cm**-1
   3:         0.00 cm**-1
   4:         0.00 cm**-1
   5:         0.00 cm**-1
   6:      1044.47 cm**-1
   7:      2198.65 cm**-1
   8:      2207.56 cm**-1

IR SPECTRUM
-----------

 Mode    freq (cm**-1)   T**2         TX         TY         TZ
-------------------------------------------------------------------
   6:      1044.47   18.932229  ( -2.679833  -1.576588  -3.043862)
   7:      2198.65  249.214572  ( 13.551223   3.573322   7.267069)
   8:      2207.56  273.851295  ( -8.938678   6.122836  12.508485)

--------------------------
THERMOCHEMISTRY AT 298.15K
--------------------------

Temperature         ... 298.15 K
Pressure            ... 1.00 atm
Total Mass          ... 32.99 AMU

Throughout the following assumptions are being made:
  (1) The electronic state is orbitally nondegenerate
  (2) There are no thermally accessible electronically excited states
  (3) Hindered rotations indicated by low frequency modes are not
      treated as such but are treated as vibrations and this may
      cause some error
  (4) All equations used are the standard statistical mechanics
      equations for an ideal gas
  (5) All vibrations are strictly harmonic

freq.    1044.47  E(vib)   ...       0.02
freq.    2198.65  E(vib)   ...       0.00
freq.    2207.56  E(vib)   ...       0.00

------------
INNER ENERGY
------------

The inner energy is: U= E(el) + E(ZPE) + E(vib) + E(rot) + E(trans)
    E(el)   - is the total energy from the electronic structure calculation
              = E(kin-el) + E(nuc-el) + E(el-el) + E(nuc-nuc)
    E(ZPE)  - the the zero temperature vibrational energy from the frequency calculation
    E(vib)  - the the finite temperature correction to E(ZPE) due to population
              of excited vibrational states
    E(rot)  - is the rotational thermal energy
    E(trans)- is the translational thermal energy

Summary of contributions to the inner energy U:
Electronic energy                ...   -342.38116391 Eh
Zero point energy                ...      0.01241755 Eh       7.79 kcal/mol
Thermal vibrational correction   ...      0.00003149 Eh       0.02 kcal/mol
Thermal rotational correction    ...      0.00141627 Eh       0.89 kcal/mol
Thermal translational correction ...      0.00141627 Eh       0.89 kcal/mol
-----------------------------------------------------------------------
Total thermal energy                   -342.36588233 Eh

Summary of corrections to the electronic energy:
(perhaps to be used in another calculation)
Total thermal correction                  0.00286403 Eh       1.80 kcal/mol
Non-thermal (ZPE) correction              0.01241755 Eh       7.79 kcal/mol
-----------------------------------------------------------------------
Total correction                          0.01528158 Eh       9.59 kcal/mol

--------
ENTHALPY
--------

The enthalpy is H = U + kB*T
                kB is Boltzmann's constant
Total free energy                 ...   -342.36588233 Eh
Thermal Enthalpy correction       ...      0.00094421 Eh       0.59 kcal/mol
-----------------------------------------------------------------------
Total Enthalpy                    ...   -342.36493812 Eh

Note: Rotational entropy computed according to Herzberg
Infrared and Raman Spectra, Chapter V,1, Van Nostrand Reinhold, 1945
Point Group:  Cs, Symmetry Number:   1
Rotational constants in cm-1:     8.627020     7.869783     4.115511

Vibrational entropy computed according to the QRRHO of S. Grimme
Chem.Eur.J. 2012 18 9955

-------
ENTROPY
-------

The entropy contributions are T*S = T*(S(el)+S(vib)+S(rot)+S(trans))
     S(el)   - electronic entropy
     S(vib)  - vibrational entropy
     S(rot)  - rotational entropy
     S(trans)- translational entropy
The entropies will be listed as mutliplied by the temperature to get
units of energy

Electronic entropy                ...      0.00000000 Eh      0.00 kcal/mol
Vibrational entropy               ...      0.00003768 Eh      0.02 kcal/mol
Rotational entropy                ...      0.00685167 Eh      4.30 kcal/mol
Translational entropy             ...      0.01730065 Eh     10.86 kcal/mol
-----------------------------------------------------------------------
Final entropy term                ...      0.02419000 Eh     15.18 kcal/mol

In case the symmetry of your molecule has not been determined correctly
or in case you have a reason to use a different symmetry number we print
out the resulting rotational entropy values for sn=1,12 :
 --------------------------------------------------------
|  sn= 1 | S(rot)=       0.00685167 Eh      4.30 kcal/mol|
|  sn= 2 | S(rot)=       0.00619721 Eh      3.89 kcal/mol|
|  sn= 3 | S(rot)=       0.00581438 Eh      3.65 kcal/mol|
|  sn= 4 | S(rot)=       0.00554276 Eh      3.48 kcal/mol|
|  sn= 5 | S(rot)=       0.00533207 Eh      3.35 kcal/mol|
|  sn= 6 | S(rot)=       0.00515992 Eh      3.24 kcal/mol|
|  sn= 7 | S(rot)=       0.00501438 Eh      3.15 kcal/mol|
|  sn= 8 | S(rot)=       0.00488830 Eh      3.07 kcal/mol|
|  sn= 9 | S(rot)=       0.00477709 Eh      3.00 kcal/mol|
|  sn=10 | S(rot)=       0.00467761 Eh      2.94 kcal/mol|
|  sn=11 | S(rot)=       0.00458762 Eh      2.88 kcal/mol|
|  sn=12 | S(rot)=       0.00450547 Eh      2.83 kcal/mol|
 --------------------------------------------------------

-------------------
GIBBS FREE ENERGY
-------------------

The Gibbs free energy is G = H - T*S

Total enthalpy                    ...   -342.36493812 Eh
Total entropy correction          ...     -0.02419000 Eh    -15.18 kcal/mol
-----------------------------------------------------------------------
Final Gibbs free energy         ...   -342.38912812 Eh

For completeness - the Gibbs free energy minus the electronic energy
G-E(el)                           ...     -0.00796421 Eh     -5.00 kcal/mol

                             ****ORCA TERMINATED NORMALLY****
TOTAL RUN TIME: 0 days 0 hours 1 minutes 24 seconds 961 msec
