                         Program Version 5.0.3 -  RELEASE  -
|  1> ! PAL5 PBE0 NumFreq
|  2> %method
|  3>         method DFT
|  4>         runtyp Energy
|  5> end
|  6> %basis
|  7>         basis "def2-TZVP"
|  8> end
|  9> %coords
| 10>         CTyp xyz
| 11>         Charge 0
| 12>         Mult 1
| 13>         Units Angs
| 14>         coords
| 15> 	#150
| 16> 	C     -1.011290    0.960957    0.000001
| 17> 	N     -0.010067    0.911446   -0.578017
| 18> 	H     -2.068270    1.013340    0.000003
| 19> 	end
| 20> end
| 21> %eprnmr
| 22>         NMRShielding 1
| 23>         Nuclei = all N {shift}
| 24>         Nuclei = all C {shift}
| 25>         Nuclei = all H {shift}
| 26> endd                         ****END OF INPUT****

CARTESIAN COORDINATES (ANGSTROEM)
---------------------------------
  C     -1.011290    0.960957    0.000001
  N     -0.010067    0.911446   -0.578017
  H     -2.068270    1.013340    0.000003

 Total Charge           Charge          ....    0
 Multiplicity           Mult            ....    1
 Number of Electrons    NEL             ....   14
 Basis Dimension        Dim             ....   68

ORBITAL ENERGIES
----------------

  NO   OCC          E(Eh)            E(eV)
   0   2.0000     -14.414494      -392.2383
   1   2.0000     -10.277273      -279.6588
   2   2.0000      -0.954034       -25.9606
   3   2.0000      -0.622633       -16.9427
   4   2.0000      -0.409546       -11.1443
   5   2.0000      -0.382778       -10.4159
   6   2.0000      -0.379154       -10.3173
   7   0.0000      -0.031086        -0.8459
   8   0.0000       0.008057         0.2192
   9   0.0000       0.082189         2.2365
  10   0.0000       0.115399         3.1402
  11   0.0000       0.220636         6.0038

MULLIKEN ATOMIC CHARGES
-----------------------
   0 C :   -0.153722
   1 N :   -0.052109
   2 H :    0.205832
Sum of atomic charges:    0.0000000

LOEWDIN ATOMIC CHARGES
----------------------
   0 C :   -0.181561
   1 N :    0.054936
   2 H :    0.126625

  Mayer bond orders larger than 0.100000
B(  0-C ,  1-N ) :   2.9947 B(  0-C ,  2-H ) :   0.9395

FINAL SINGLE POINT ENERGY       -93.336056688189

DIPOLE MOMENT
-------------
                                X             Y             Z
Electronic contribution:      0.37279      -0.01848       0.03538
Nuclear contribution   :     -1.43861       0.07124       0.27952
                        -----------------------------------------
Total Dipole Moment    :     -1.06582       0.05276       0.31490
                        -----------------------------------------
Magnitude (a.u.)       :      1.11262
Magnitude (Debye)      :      2.82805

CHEMICAL SHIELDING SUMMARY (ppm)
--------------------------------

  Nucleus  Element    Isotropic     Anisotropy
  -------  -------  ------------   ------------
      1       N          -80.835        404.898
      0       C           71.156        310.508
      2       H           28.144         14.312

VIBRATIONAL FREQUENCIES
-----------------------

Scaling factor for frequencies =  1.000000000 (already applied!)

   0:         0.00 cm**-1
   1:         0.00 cm**-1
   2:         0.00 cm**-1
   3:         0.00 cm**-1
   4:         0.00 cm**-1
   5:         0.00 cm**-1
   6:       627.51 cm**-1
   7:      2163.84 cm**-1
   8:      3532.47 cm**-1

IR SPECTRUM
-----------

 Mode   freq       eps      Int      T**2         TX        TY        TZ
       cm**-1   L/(mol*cm) km/mol    a.u.
----------------------------------------------------------------------------
  6:    627.51   0.013721   69.34  0.006824  (-0.027165  0.001330  0.078000)
  7:   2163.84   0.000678    3.43  0.000098  ( 0.005483 -0.000274  0.008224)
  8:   3532.47   0.014406   72.80  0.001273  (-0.035614  0.001777  0.001052)

--------------------------
THERMOCHEMISTRY AT 298.15K
--------------------------

Temperature         ... 298.15 K
Pressure            ... 1.00 atm
Total Mass          ... 27.03 AMU

Throughout the following assumptions are being made:
  (1) The electronic state is orbitally nondegenerate
  (2) There are no thermally accessible electronically excited states
  (3) Hindered rotations indicated by low frequency modes are not
      treated as such but are treated as vibrations and this may
      cause some error
  (4) All equations used are the standard statistical mechanics
      equations for an ideal gas
  (5) All vibrations are strictly harmonic

freq.     627.51  E(vib)   ...       0.09
freq.    2163.84  E(vib)   ...       0.00
freq.    3532.47  E(vib)   ...       0.00

------------
INNER ENERGY
------------

The inner energy is: U= E(el) + E(ZPE) + E(vib) + E(rot) + E(trans)
    E(el)   - is the total energy from the electronic structure calculation
              = E(kin-el) + E(nuc-el) + E(el-el) + E(nuc-nuc)
    E(ZPE)  - the the zero temperature vibrational energy from the frequency calculation
    E(vib)  - the the finite temperature correction to E(ZPE) due to population
              of excited vibrational states
    E(rot)  - is the rotational thermal energy
    E(trans)- is the translational thermal energy

Summary of contributions to the inner energy U:
Electronic energy                ...    -93.33605669 Eh
Zero point energy                ...      0.01440672 Eh       9.04 kcal/mol
Thermal vibrational correction   ...      0.00014574 Eh       0.09 kcal/mol
Thermal rotational correction    ...      0.00141627 Eh       0.89 kcal/mol
Thermal translational correction ...      0.00141627 Eh       0.89 kcal/mol
-----------------------------------------------------------------------
Total thermal energy                    -93.31867169 Eh

Summary of corrections to the electronic energy:
(perhaps to be used in another calculation)
Total thermal correction                  0.00297828 Eh       1.87 kcal/mol
Non-thermal (ZPE) correction              0.01440672 Eh       9.04 kcal/mol
-----------------------------------------------------------------------
Total correction                          0.01738500 Eh      10.91 kcal/mol

--------
ENTHALPY
--------

The enthalpy is H = U + kB*T
                kB is Boltzmann's constant
Total free energy                 ...    -93.31867169 Eh
Thermal Enthalpy correction       ...      0.00094421 Eh       0.59 kcal/mol
-----------------------------------------------------------------------
Total Enthalpy                    ...    -93.31772748 Eh

Note: Rotational entropy computed according to Herzberg
Infrared and Raman Spectra, Chapter V,1, Van Nostrand Reinhold, 1945
Point Group:  Cs, Symmetry Number:   1
Rotational constants in cm-1:    79.100510     1.530145     1.501107

Vibrational entropy computed according to the QRRHO of S. Grimme
Chem.Eur.J. 2012 18 9955

-------
ENTROPY
-------

The entropy contributions are T*S = T*(S(el)+S(vib)+S(rot)+S(trans))
     S(el)   - electronic entropy
     S(vib)  - vibrational entropy
     S(rot)  - rotational entropy
     S(trans)- translational entropy
The entropies will be listed as multiplied by the temperature to get
units of energy

Electronic entropy                ...      0.00000000 Eh      0.00 kcal/mol
Vibrational entropy               ...      0.00019280 Eh      0.12 kcal/mol
Rotational entropy                ...      0.00705486 Eh      4.43 kcal/mol
Translational entropy             ...      0.01701823 Eh     10.68 kcal/mol
-----------------------------------------------------------------------
Final entropy term                ...      0.02426589 Eh     15.23 kcal/mol

In case the symmetry of your molecule has not been determined correctly
or in case you have a reason to use a different symmetry number we print
out the resulting rotational entropy values for sn=1,12 :
 --------------------------------------------------------
|  sn= 1 | S(rot)=       0.00705486 Eh      4.43 kcal/mol|
|  sn= 2 | S(rot)=       0.00640040 Eh      4.02 kcal/mol|
|  sn= 3 | S(rot)=       0.00601757 Eh      3.78 kcal/mol|
|  sn= 4 | S(rot)=       0.00574595 Eh      3.61 kcal/mol|
|  sn= 5 | S(rot)=       0.00553526 Eh      3.47 kcal/mol|
|  sn= 6 | S(rot)=       0.00536312 Eh      3.37 kcal/mol|
|  sn= 7 | S(rot)=       0.00521757 Eh      3.27 kcal/mol|
|  sn= 8 | S(rot)=       0.00509149 Eh      3.19 kcal/mol|
|  sn= 9 | S(rot)=       0.00498028 Eh      3.13 kcal/mol|
|  sn=10 | S(rot)=       0.00488080 Eh      3.06 kcal/mol|
|  sn=11 | S(rot)=       0.00479081 Eh      3.01 kcal/mol|
|  sn=12 | S(rot)=       0.00470866 Eh      2.95 kcal/mol|
 --------------------------------------------------------

-------------------
GIBBS FREE ENERGY
-------------------

The Gibbs free energy is G = H - T*S

Total enthalpy                    ...    -93.31772748 Eh
Total entropy correction          ...     -0.02426589 Eh    -15.23 kcal/mol
-----------------------------------------------------------------------
Final Gibbs free energy         ...    -93.34199338 Eh

For completeness - the Gibbs free energy minus the electronic energy
G-E(el)                           ...     -0.00593669 Eh     -3.73 kcal/mol

                             ****ORCA TERMINATED NORMALLY****
TOTAL RUN TIME: 0 days 0 hours 1 minutes 6 seconds 866 msec
