                         Program Version 5.0.3 -  RELEASE  -
|  1> ! PAL5 PBE0 Numfreq
|  2> %method
|  3>         method DFT
|  4>         runtyp Energy
|  5> end
|  6> %basis
|  7>         basis "def2-TZVP"
|  8> end
|  9> %coords
| 10>         CTyp xyz
| 11>         Charge 0
| 12>         Mult 1
| 13>         Units Angs
| 14>         coords
| 15> 	#105
| 16> 	C     -1.011290    0.960957    0.000001
| 17> 	N     -0.708861    0.946003   -1.116832
| 18> 	H     -2.068270    1.013340    0.000003
| 19> 	end
| 20> end
| 21> %eprnmr
| 22>         NMRShielding 1
| 23>         Nuclei = all N {shift}
| 24>         Nuclei = all C {shift}
| 25>         Nuclei = all H {shift}
| 26> endd                         ****END OF INPUT****

CARTESIAN COORDINATES (ANGSTROEM)
---------------------------------
  C     -1.011290    0.960957    0.000001
  N     -0.708861    0.946003   -1.116832
  H     -2.068270    1.013340    0.000003

 Total Charge           Charge          ....    0
 Multiplicity           Mult            ....    1
 Number of Electrons    NEL             ....   14
 Basis Dimension        Dim             ....   68

ORBITAL ENERGIES
----------------

  NO   OCC          E(Eh)            E(eV)
   0   2.0000     -14.433685      -392.7605
   1   2.0000     -10.270943      -279.4866
   2   2.0000      -0.981732       -26.7143
   3   2.0000      -0.588636       -16.0176
   4   2.0000      -0.435570       -11.8525
   5   2.0000      -0.395672       -10.7668
   6   2.0000      -0.372569       -10.1381
   7   0.0000      -0.080754        -2.1974
   8   0.0000       0.009768         0.2658
   9   0.0000       0.088012         2.3949
  10   0.0000       0.143103         3.8940
  11   0.0000       0.207748         5.6531

MULLIKEN ATOMIC CHARGES
-----------------------
   0 C :   -0.232948
   1 N :    0.012424
   2 H :    0.220523
Sum of atomic charges:   -0.0000000

LOEWDIN ATOMIC CHARGES
----------------------
   0 C :   -0.269387
   1 N :    0.102280
   2 H :    0.167107

  Mayer bond orders larger than 0.100000
B(  0-C ,  1-N ) :   2.8088 B(  0-C ,  2-H ) :   0.8791

FINAL SINGLE POINT ENERGY       -93.293152196968

DIPOLE MOMENT
-------------
                                X             Y             Z
Electronic contribution:      0.49490      -0.02453      -0.12511
Nuclear contribution   :     -1.10068       0.05453       0.54008
                        -----------------------------------------
Total Dipole Moment    :     -0.60578       0.03000       0.41497
                        -----------------------------------------
Magnitude (a.u.)       :      0.73490
Magnitude (Debye)      :      1.86796

CHEMICAL SHIELDING SUMMARY (ppm)
--------------------------------

  Nucleus  Element    Isotropic     Anisotropy
  -------  -------  ------------   ------------
      1       N         -242.832       -587.312
      0       C           53.592        310.476
      2       H           23.774         10.682

VIBRATIONAL FREQUENCIES
-----------------------

Scaling factor for frequencies =  1.000000000 (already applied!)

   0:         0.00 cm**-1
   1:         0.00 cm**-1
   2:         0.00 cm**-1
   3:         0.00 cm**-1
   4:         0.00 cm**-1
   5:         0.00 cm**-1
   6:      -715.00 cm**-1 ***imaginary mode***
   7:      2211.55 cm**-1
   8:      3511.44 cm**-1

IR SPECTRUM
-----------

 Mode   freq       eps      Int      T**2         TX        TY        TZ
       cm**-1   L/(mol*cm) km/mol    a.u.
----------------------------------------------------------------------------
  7:   2211.55   0.000781    3.95  0.000110  ( 0.002568 -0.000131  0.010177)
  8:   3511.44   0.021216  107.22  0.001885  (-0.042921  0.002151  0.006214)

--------------------------
THERMOCHEMISTRY AT 298.15K
--------------------------

Temperature         ... 298.15 K
Pressure            ... 1.00 atm
Total Mass          ... 27.03 AMU

Throughout the following assumptions are being made:
  (1) The electronic state is orbitally nondegenerate
  (2) There are no thermally accessible electronically excited states
  (3) Hindered rotations indicated by low frequency modes are not
      treated as such but are treated as vibrations and this may
      cause some error
  (4) All equations used are the standard statistical mechanics
      equations for an ideal gas
  (5) All vibrations are strictly harmonic

freq.    2211.55  E(vib)   ...       0.00
freq.    3511.44  E(vib)   ...       0.00

------------
INNER ENERGY
------------

The inner energy is: U= E(el) + E(ZPE) + E(vib) + E(rot) + E(trans)
    E(el)   - is the total energy from the electronic structure calculation
              = E(kin-el) + E(nuc-el) + E(el-el) + E(nuc-nuc)
    E(ZPE)  - the the zero temperature vibrational energy from the frequency calculation
    E(vib)  - the the finite temperature correction to E(ZPE) due to population
              of excited vibrational states
    E(rot)  - is the rotational thermal energy
    E(trans)- is the translational thermal energy

Summary of contributions to the inner energy U:
Electronic energy                ...    -93.29315220 Eh
Zero point energy                ...      0.01303792 Eh       8.18 kcal/mol
Thermal vibrational correction   ...      0.00000023 Eh       0.00 kcal/mol
Thermal rotational correction    ...      0.00141627 Eh       0.89 kcal/mol
Thermal translational correction ...      0.00141627 Eh       0.89 kcal/mol
-----------------------------------------------------------------------
Total thermal energy                    -93.27728150 Eh

Summary of corrections to the electronic energy:
(perhaps to be used in another calculation)
Total thermal correction                  0.00283278 Eh       1.78 kcal/mol
Non-thermal (ZPE) correction              0.01303792 Eh       8.18 kcal/mol
-----------------------------------------------------------------------
Total correction                          0.01587070 Eh       9.96 kcal/mol

--------
ENTHALPY
--------

The enthalpy is H = U + kB*T
                kB is Boltzmann's constant
Total free energy                 ...    -93.27728150 Eh
Thermal Enthalpy correction       ...      0.00094421 Eh       0.59 kcal/mol
-----------------------------------------------------------------------
Total Enthalpy                    ...    -93.27633729 Eh

Note: Rotational entropy computed according to Herzberg
Infrared and Raman Spectra, Chapter V,1, Van Nostrand Reinhold, 1945
Point Group:  Cs, Symmetry Number:   1
Rotational constants in cm-1:    18.342173     1.767523     1.612168

Vibrational entropy computed according to the QRRHO of S. Grimme
Chem.Eur.J. 2012 18 9955

-------
ENTROPY
-------

The entropy contributions are T*S = T*(S(el)+S(vib)+S(rot)+S(trans))
     S(el)   - electronic entropy
     S(vib)  - vibrational entropy
     S(rot)  - rotational entropy
     S(trans)- translational entropy
The entropies will be listed as multiplied by the temperature to get
units of energy

Electronic entropy                ...      0.00000000 Eh      0.00 kcal/mol
Vibrational entropy               ...      0.00000026 Eh      0.00 kcal/mol
Rotational entropy                ...      0.00764305 Eh      4.80 kcal/mol
Translational entropy             ...      0.01701823 Eh     10.68 kcal/mol
-----------------------------------------------------------------------
Final entropy term                ...      0.02466154 Eh     15.48 kcal/mol

In case the symmetry of your molecule has not been determined correctly
or in case you have a reason to use a different symmetry number we print
out the resulting rotational entropy values for sn=1,12 :
 --------------------------------------------------------
|  sn= 1 | S(rot)=       0.00764305 Eh      4.80 kcal/mol|
|  sn= 2 | S(rot)=       0.00698859 Eh      4.39 kcal/mol|
|  sn= 3 | S(rot)=       0.00660576 Eh      4.15 kcal/mol|
|  sn= 4 | S(rot)=       0.00633414 Eh      3.97 kcal/mol|
|  sn= 5 | S(rot)=       0.00612345 Eh      3.84 kcal/mol|
|  sn= 6 | S(rot)=       0.00595130 Eh      3.73 kcal/mol|
|  sn= 7 | S(rot)=       0.00580576 Eh      3.64 kcal/mol|
|  sn= 8 | S(rot)=       0.00567968 Eh      3.56 kcal/mol|
|  sn= 9 | S(rot)=       0.00556847 Eh      3.49 kcal/mol|
|  sn=10 | S(rot)=       0.00546899 Eh      3.43 kcal/mol|
|  sn=11 | S(rot)=       0.00537900 Eh      3.38 kcal/mol|
|  sn=12 | S(rot)=       0.00529685 Eh      3.32 kcal/mol|
 --------------------------------------------------------

-------------------
GIBBS FREE ENERGY
-------------------

The Gibbs free energy is G = H - T*S

Total enthalpy                    ...    -93.27633729 Eh
Total entropy correction          ...     -0.02466154 Eh    -15.48 kcal/mol
-----------------------------------------------------------------------
Final Gibbs free energy         ...    -93.30099883 Eh

For completeness - the Gibbs free energy minus the electronic energy
G-E(el)                           ...     -0.00784663 Eh     -4.92 kcal/mol

                             ****ORCA TERMINATED NORMALLY****
TOTAL RUN TIME: 0 days 0 hours 1 minutes 7 seconds 802 msec
