                         Program Version 4.2.1 -  RELEASE  -
|  1> ! PAL5 VWN
|  2> %method
|  3>         method DFT
|  4>         runtyp OPT
|  5> end
|  6>
|  7> %basis
|  8>         basis "def2-TZVP"
|  9> end
| 10> ! NumFreq
| 11> %output
| 12>         XYZFile true
| 13> end
| 14> %coords
| 15>         CTyp xyz
| 16>         Charge 1
| 17>         Mult 2
| 18>         Units Angs
| 19>         coords
| 20>         S       -1.3964703605      0.5346218729     -0.0392481365
| 21> 	O        0.1725606238      0.5123737189     -0.0821591799
| 22> 	O       -1.9650463708      1.2081038033      1.2597276053
| 23>         end
| 24> endd                         ****END OF INPUT****
 Total Charge           Charge          ....    1
 Multiplicity           Mult            ....    2
 Number of Electrons    NEL             ....   31
FINAL SINGLE POINT ENERGY      -545.823042305576   (Wavefunction not fully converged!)
FINAL SINGLE POINT ENERGY      -545.846625359242
FINAL SINGLE POINT ENERGY      -545.861632853826
FINAL SINGLE POINT ENERGY      -545.862685247124
FINAL SINGLE POINT ENERGY      -545.862948728854
FINAL SINGLE POINT ENERGY      -545.862952266950
                    ***********************HURRAY********************

CARTESIAN COORDINATES (ANGSTROEM)
---------------------------------
  S     -1.280868    0.609881    0.105907
  O      0.117966    0.473676   -0.156796
  O     -2.026054    1.171542    1.189209

 Multiplicity           Mult            ....    2
 Number of Electrons    NEL             ....   31
 Basis Dimension        Dim             ....   99

ORBITAL ENERGIES
----------------
                 SPIN UP ORBITALS
  NO   OCC          E(Eh)            E(eV)
   0   1.0000     -88.229128     -2400.8366
   1   1.0000     -19.038868      -518.0739
   2   1.0000     -19.038819      -518.0726
   3   1.0000      -8.137464      -221.4317
   4   1.0000      -6.192818      -168.5151
   5   1.0000      -6.190004      -168.4386
   6   1.0000      -6.189441      -168.4233
   7   1.0000      -1.403525       -38.1919
   8   1.0000      -1.326449       -36.0945
   9   1.0000      -0.908602       -24.7243
  10   1.0000      -0.787178       -21.4202
  11   1.0000      -0.782266       -21.2865
  12   1.0000      -0.778747       -21.1908
  13   1.0000      -0.684799       -18.6343
  14   1.0000      -0.673693       -18.3321
  15   1.0000      -0.630423       -17.1547
  16   0.0000      -0.483815       -13.1653
  17   0.0000      -0.356108        -9.6902
  18   0.0000      -0.229825        -6.2539
  19   0.0000      -0.077317        -2.1039
  20   0.0000      -0.068018        -1.8509

                 SPIN DOWN ORBITALS
  NO   OCC          E(Eh)            E(eV)
   0   1.0000     -88.227339     -2400.7879
   1   1.0000     -19.029016      -517.8058
   2   1.0000     -19.028968      -517.8045
   3   1.0000      -8.134840      -221.3603
   4   1.0000      -6.190551      -168.4534
   5   1.0000      -6.187929      -168.3821
   6   1.0000      -6.185265      -168.3096
   7   1.0000      -1.387766       -37.7630
   8   1.0000      -1.308148       -35.5965
   9   1.0000      -0.886181       -24.1142
  10   1.0000      -0.772452       -21.0195
  11   1.0000      -0.763910       -20.7870
  12   1.0000      -0.763846       -20.7853
  13   1.0000      -0.674251       -18.3473
  14   1.0000      -0.657903       -17.9024
  15   0.0000      -0.592804       -16.1310
  16   0.0000      -0.467697       -12.7267
  17   0.0000      -0.343806        -9.3554
  18   0.0000      -0.211927        -5.7668
  19   0.0000      -0.066194        -1.8012

MULLIKEN ATOMIC CHARGES AND SPIN POPULATIONS
--------------------------------------------
   0 S :    0.929067    0.375878
   1 O :    0.035153    0.311988
   2 O :    0.035779    0.312134
Sum of atomic charges         :    1.0000000

LOEWDIN ATOMIC CHARGES AND SPIN POPULATIONS
-------------------------------------------
   0 S :    0.899450    0.396422
   1 O :    0.050227    0.301710
   2 O :    0.050323    0.301867

  Mayer bond orders larger than 0.100000
B(  0-S ,  1-O ) :   2.0771 B(  0-S ,  2-O ) :   2.0777 B(  1-O ,  2-O ) :   0.3343

FINAL SINGLE POINT ENERGY      -545.862952260677

DIPOLE MOMENT
-------------
                                X             Y             Z
Electronic contribution:     -0.26961      -0.17546      -0.33822
Nuclear contribution   :      0.00956       0.00623       0.01201
                        -----------------------------------------
Total Dipole Moment    :     -0.26005      -0.16923      -0.32622
                        -----------------------------------------
Magnitude (a.u.)       :      0.45020
Magnitude (Debye)      :      1.14433

VIBRATIONAL FREQUENCIES
-----------------------

Scaling factor for frequencies =  1.000000000 (already applied!)

   0:         0.00 cm**-1
   1:         0.00 cm**-1
   2:         0.00 cm**-1
   3:         0.00 cm**-1
   4:         0.00 cm**-1
   5:         0.00 cm**-1
   6:       401.67 cm**-1
   7:      1103.31 cm**-1
   8:      1359.25 cm**-1

IR SPECTRUM
-----------

 Mode    freq (cm**-1)   T**2         TX         TY         TZ
-------------------------------------------------------------------
   6:       401.67   16.697357  (  2.381437   1.508229   2.958270)
   7:      1103.31    0.426083  ( -0.419827  -0.206624  -0.455120)
   8:      1359.25   15.410707  ( -3.223987   1.011561   1.998339)

--------------------------
THERMOCHEMISTRY AT 298.15K
--------------------------

Temperature         ... 298.15 K
Pressure            ... 1.00 atm
Total Mass          ... 64.06 AMU

Throughout the following assumptions are being made:
  (1) The electronic state is orbitally nondegenerate
      but the spin degeneracy is treated
  (2) There are no thermally accessible electronically excited states
  (3) Hindered rotations indicated by low frequency modes are not
      treated as such but are treated as vibrations and this may
      cause some error
  (4) All equations used are the standard statistical mechanics
      equations for an ideal gas
  (5) All vibrations are strictly harmonic

freq.     401.67  E(vib)   ...       0.19
freq.    1103.31  E(vib)   ...       0.02
freq.    1359.25  E(vib)   ...       0.01

------------
INNER ENERGY
------------

The inner energy is: U= E(el) + E(ZPE) + E(vib) + E(rot) + E(trans)
    E(el)   - is the total energy from the electronic structure calculation
              = E(kin-el) + E(nuc-el) + E(el-el) + E(nuc-nuc)
    E(ZPE)  - the the zero temperature vibrational energy from the frequency calculation
    E(vib)  - the the finite temperature correction to E(ZPE) due to population
              of excited vibrational states
    E(rot)  - is the rotational thermal energy
    E(trans)- is the translational thermal energy

Summary of contributions to the inner energy U:
Electronic energy                ...   -545.86295635 Eh
Zero point energy                ...      0.00652520 Eh       4.09 kcal/mol
Thermal vibrational correction   ...      0.00034116 Eh       0.21 kcal/mol
Thermal rotational correction    ...      0.00141627 Eh       0.89 kcal/mol
Thermal translational correction ...      0.00141627 Eh       0.89 kcal/mol
-----------------------------------------------------------------------
Total thermal energy                   -545.85325745 Eh

Summary of corrections to the electronic energy:
(perhaps to be used in another calculation)
Total thermal correction                  0.00317370 Eh       1.99 kcal/mol
Non-thermal (ZPE) correction              0.00652520 Eh       4.09 kcal/mol
-----------------------------------------------------------------------
Total correction                          0.00969890 Eh       6.09 kcal/mol

--------
ENTHALPY
--------

The enthalpy is H = U + kB*T
                kB is Boltzmann's constant
Total free energy                 ...   -545.85325745 Eh
Thermal Enthalpy correction       ...      0.00094421 Eh       0.59 kcal/mol
-----------------------------------------------------------------------
Total Enthalpy                    ...   -545.85231325 Eh

Note: Rotational entropy computed according to Herzberg
Infrared and Raman Spectra, Chapter V,1, Van Nostrand Reinhold, 1945
Point Group:  Cs, Symmetry Number:   1
Rotational constants in cm-1:     3.285296     0.305607     0.279598

Vibrational entropy computed according to the QRRHO of S. Grimme
Chem.Eur.J. 2012 18 9955

-------
ENTROPY
-------

The entropy contributions are T*S = T*(S(el)+S(vib)+S(rot)+S(trans))
     S(el)   - electronic entropy
     S(vib)  - vibrational entropy
     S(rot)  - rotational entropy
     S(trans)- translational entropy
The entropies will be listed as mutliplied by the temperature to get
units of energy

Electronic entropy                ...      0.00065446 Eh      0.41 kcal/mol
Vibrational entropy               ...      0.00049481 Eh      0.31 kcal/mol
Rotational entropy                ...      0.01011055 Eh      6.34 kcal/mol
Translational entropy             ...      0.01824046 Eh     11.45 kcal/mol
-----------------------------------------------------------------------
Final entropy term                ...      0.02950029 Eh     18.51 kcal/mol

In case the symmetry of your molecule has not been determined correctly
or in case you have a reason to use a different symmetry number we print
out the resulting rotational entropy values for sn=1,12 :
 --------------------------------------------------------
|  sn= 1 | S(rot)=       0.01011055 Eh      6.34 kcal/mol|
|  sn= 2 | S(rot)=       0.00945610 Eh      5.93 kcal/mol|
|  sn= 3 | S(rot)=       0.00907326 Eh      5.69 kcal/mol|
|  sn= 4 | S(rot)=       0.00880164 Eh      5.52 kcal/mol|
|  sn= 5 | S(rot)=       0.00859095 Eh      5.39 kcal/mol|
|  sn= 6 | S(rot)=       0.00841881 Eh      5.28 kcal/mol|
|  sn= 7 | S(rot)=       0.00827326 Eh      5.19 kcal/mol|
|  sn= 8 | S(rot)=       0.00814718 Eh      5.11 kcal/mol|
|  sn= 9 | S(rot)=       0.00803598 Eh      5.04 kcal/mol|
|  sn=10 | S(rot)=       0.00793650 Eh      4.98 kcal/mol|
|  sn=11 | S(rot)=       0.00784651 Eh      4.92 kcal/mol|
|  sn=12 | S(rot)=       0.00776435 Eh      4.87 kcal/mol|
 --------------------------------------------------------

-------------------
GIBBS FREE ENERGY
-------------------

The Gibbs free energy is G = H - T*S

Total enthalpy                    ...   -545.85231325 Eh
Total entropy correction          ...     -0.02950029 Eh    -18.51 kcal/mol
-----------------------------------------------------------------------
Final Gibbs free energy         ...   -545.88181353 Eh

For completeness - the Gibbs free energy minus the electronic energy
G-E(el)                           ...     -0.01885718 Eh    -11.83 kcal/mol

                             ****ORCA TERMINATED NORMALLY****
TOTAL RUN TIME: 0 days 0 hours 2 minutes 34 seconds 360 msec
