                         Program Version 5.0.3 -  RELEASE  -
|  1> ! VWN
|  2> %method
|  3>         method DFT
|  4>         runtyp OPT
|  5> end
|  6>
|  7> %scf
|  8>        MaxIter 500
|  9> end
| 10> %geom
| 11>        MaxIter 500
| 12>        Convergence loose
| 13> end
| 14>
| 15> %basis
| 16>         basis "def2-SVP"
| 17> end
| 18> ! NumFreq
| 19> %elprop
| 20>         Polar 1
| 21> end
| 22> %output
| 23>         XYZFile true
| 24> end
| 25> %coords
| 26>         CTyp xyz
| 27>         Charge -1
| 28>         Mult 1
| 29>         Units Angs
| 30>         coords
| 31> 	O	0	0	0
| 32> 	H	1	0	0
| 33>         end
| 34> end
| 35>
| 36>                          ****END OF INPUT****
 Total Charge           Charge          ....   -1
 Multiplicity           Mult            ....    1
 Number of Electrons    NEL             ....   10
FINAL SINGLE POINT ENERGY       -75.103849651242
FINAL SINGLE POINT ENERGY       -75.103885755905
                    ***********************HURRAY********************

CARTESIAN COORDINATES (ANGSTROEM)
---------------------------------
  O      0.003542    0.000000    0.000000
  H      0.996458    0.000000    0.000000

 Multiplicity           Mult            ....    1
 Number of Electrons    NEL             ....   10
 Basis Dimension        Dim             ....   19

ORBITAL ENERGIES
----------------

  NO   OCC          E(Eh)            E(eV)
   0   2.0000     -18.111948      -492.8512
   1   2.0000      -0.365408        -9.9433
   2   2.0000       0.069014         1.8780
   3   2.0000       0.220656         6.0044
   4   2.0000       0.220656         6.0044
   5   0.0000       0.345342         9.3972
   6   0.0000       0.902768        24.5656
   7   0.0000       1.240156        33.7464
   8   0.0000       1.265584        34.4383
   9   0.0000       1.265584        34.4383

MULLIKEN ATOMIC CHARGES
-----------------------
   0 O :   -0.964480
   1 H :   -0.035520
Sum of atomic charges:   -1.0000000

LOEWDIN ATOMIC CHARGES
----------------------
   0 O :   -0.907075
   1 H :   -0.092925

  Mayer bond orders larger than 0.100000
B(  0-O ,  1-H ) :   1.0466

FINAL SINGLE POINT ENERGY       -75.103886098089

DIPOLE MOMENT
-------------
                                X             Y             Z
Electronic contribution:     -0.53394      -0.00000      -0.00000
Nuclear contribution   :      0.87545       0.00000       0.00000
                        -----------------------------------------
Total Dipole Moment    :      0.34151      -0.00000      -0.00000
                        -----------------------------------------
Magnitude (a.u.)       :      0.34151
Magnitude (Debye)      :      0.86804

VIBRATIONAL FREQUENCIES
-----------------------

Scaling factor for frequencies =  1.000000000 (already applied!)

   0:         0.00 cm**-1
   1:         0.00 cm**-1
   2:         0.00 cm**-1
   3:         0.00 cm**-1
   4:         0.00 cm**-1
   5:      3405.13 cm**-1

IR SPECTRUM
-----------

 Mode   freq       eps      Int      T**2         TX        TY        TZ
       cm**-1   L/(mol*cm) km/mol    a.u.
----------------------------------------------------------------------------
  5:   3405.13   0.070458  356.07  0.006457  (-0.080356  0.000000  0.000000)

--------------------------
THERMOCHEMISTRY AT 298.15K
--------------------------

Temperature         ... 298.15 K
Pressure            ... 1.00 atm
Total Mass          ... 17.01 AMU
The molecule is recognized as being linear

Throughout the following assumptions are being made:
  (1) The electronic state is orbitally nondegenerate
  (2) There are no thermally accessible electronically excited states
  (3) Hindered rotations indicated by low frequency modes are not
      treated as such but are treated as vibrations and this may
      cause some error
  (4) All equations used are the standard statistical mechanics
      equations for an ideal gas
  (5) All vibrations are strictly harmonic

freq.    3405.13  E(vib)   ...       0.00

------------
INNER ENERGY
------------

The inner energy is: U= E(el) + E(ZPE) + E(vib) + E(rot) + E(trans)
    E(el)   - is the total energy from the electronic structure calculation
              = E(kin-el) + E(nuc-el) + E(el-el) + E(nuc-nuc)
    E(ZPE)  - the the zero temperature vibrational energy from the frequency calculation
    E(vib)  - the the finite temperature correction to E(ZPE) due to population
              of excited vibrational states
    E(rot)  - is the rotational thermal energy
    E(trans)- is the translational thermal energy

Summary of contributions to the inner energy U:
Electronic energy                ...    -75.10388610 Eh
Zero point energy                ...      0.00775746 Eh       4.87 kcal/mol
Thermal vibrational correction   ...      0.00000000 Eh       0.00 kcal/mol
Thermal rotational correction    ...      0.00094418 Eh       0.59 kcal/mol
Thermal translational correction ...      0.00141627 Eh       0.89 kcal/mol
-----------------------------------------------------------------------
Total thermal energy                    -75.09376818 Eh

Summary of corrections to the electronic energy:
(perhaps to be used in another calculation)
Total thermal correction                  0.00236045 Eh       1.48 kcal/mol
Non-thermal (ZPE) correction              0.00775746 Eh       4.87 kcal/mol
-----------------------------------------------------------------------
Total correction                          0.01011792 Eh       6.35 kcal/mol

--------
ENTHALPY
--------

The enthalpy is H = U + kB*T
                kB is Boltzmann's constant
Total free energy                 ...    -75.09376818 Eh
Thermal Enthalpy correction       ...      0.00094421 Eh       0.59 kcal/mol
-----------------------------------------------------------------------
Total Enthalpy                    ...    -75.09282397 Eh

Note: Rotational entropy computed according to Herzberg
Infrared and Raman Spectra, Chapter V,1, Van Nostrand Reinhold, 1945
Point Group:  Cinfv, Symmetry Number:   1
Rotational constants in cm-1:     0.000000    18.032106    18.032106

Vibrational entropy computed according to the QRRHO of S. Grimme
Chem.Eur.J. 2012 18 9955

-------
ENTROPY
-------

The entropy contributions are T*S = T*(S(el)+S(vib)+S(rot)+S(trans))
     S(el)   - electronic entropy
     S(vib)  - vibrational entropy
     S(rot)  - rotational entropy
     S(trans)- translational entropy
The entropies will be listed as multiplied by the temperature to get
units of energy

Electronic entropy                ...      0.00000000 Eh      0.00 kcal/mol
Vibrational entropy               ...      0.00000000 Eh      0.00 kcal/mol
Rotational entropy                ...      0.00324955 Eh      2.04 kcal/mol
Translational entropy             ...      0.01636225 Eh     10.27 kcal/mol
-----------------------------------------------------------------------
Final entropy term                ...      0.01961180 Eh     12.31 kcal/mol

-------------------
GIBBS FREE ENERGY
-------------------

The Gibbs free energy is G = H - T*S

Total enthalpy                    ...    -75.09282397 Eh
Total entropy correction          ...     -0.01961180 Eh    -12.31 kcal/mol
-----------------------------------------------------------------------
Final Gibbs free energy         ...    -75.11243577 Eh

For completeness - the Gibbs free energy minus the electronic energy
G-E(el)                           ...     -0.00854967 Eh     -5.36 kcal/mol

                             ****ORCA TERMINATED NORMALLY****
TOTAL RUN TIME: 0 days 0 hours 4 minutes 4 seconds 175 msec
