                         Program Version 5.0.3 -  RELEASE  -
|  1> ! PAL5 PBE0 NumFreq
|  2> %method
|  3>         method DFT
|  4>         runtyp Energy
|  5> end
|  6> %basis
|  7>         basis "def2-TZVP"
|  8> end
|  9> %coords
| 10>         CTyp xyz
| 11>         Charge 0
| 12>         Mult 1
| 13>         Units Angs
| 14>         coords
| 15> 	#63.3
| 16> 	C      0.901162    0.213223   -0.028373
| 17> 	C      2.433052    0.225083   -0.148833
| 18> 	H      0.564408   -0.705168    0.457733
| 19> 	H      0.440970    0.271192   -1.017312
| 20> 	H      0.559134    1.064891    0.563995
| 21> 	H      2.763812   -0.521759   -0.874150
| 22> 	H      2.781611    1.206533   -0.477840
| 23> 	H      2.892631   -0.000931    0.815945
| 24> 	end
| 25> end
| 26> %eprnmr
| 27>         NMRShielding 1
| 28>         Nuclei = all C {shift}
| 29>         Nuclei = all H {shift}
| 30> endd                         ****END OF INPUT****

CARTESIAN COORDINATES (ANGSTROEM)
---------------------------------
  C      0.901162    0.213223   -0.028373
  C      2.433052    0.225083   -0.148833
  H      0.564408   -0.705168    0.457733
  H      0.440970    0.271192   -1.017312
  H      0.559134    1.064891    0.563995
  H      2.763812   -0.521759   -0.874150
  H      2.781611    1.206533   -0.477840
  H      2.892631   -0.000931    0.815945

 Total Charge           Charge          ....    0
 Multiplicity           Mult            ....    1
 Number of Electrons    NEL             ....   18
 Basis Dimension        Dim             ....   98

ORBITAL ENERGIES
----------------

  NO   OCC          E(Eh)            E(eV)
   0   2.0000     -10.207378      -277.7569
   1   2.0000     -10.207151      -277.7507
   2   2.0000      -0.773291       -21.0423
   3   2.0000      -0.631362       -17.1802
   4   2.0000      -0.448161       -12.1951
   5   2.0000      -0.448151       -12.1948
   6   2.0000      -0.373900       -10.1743
   7   2.0000      -0.353845        -9.6286
   8   2.0000      -0.353829        -9.6282
   9   0.0000       0.052113         1.4181
  10   0.0000       0.092381         2.5138
  11   0.0000       0.118757         3.2315
  12   0.0000       0.118770         3.2319
  13   0.0000       0.138776         3.7763

MULLIKEN ATOMIC CHARGES
-----------------------
   0 C :   -0.344220
   1 C :   -0.343805
   2 H :    0.114707
   3 H :    0.114649
   4 H :    0.114743
   5 H :    0.114624
   6 H :    0.114647
   7 H :    0.114656
Sum of atomic charges:    0.0000000

LOEWDIN ATOMIC CHARGES
----------------------
   0 C :   -0.348409
   1 C :   -0.348370
   2 H :    0.116133
   3 H :    0.116131
   4 H :    0.116144
   5 H :    0.116136
   6 H :    0.116110
   7 H :    0.116125

  Mayer bond orders larger than 0.100000
B(  0-C ,  1-C ) :   1.0062 B(  0-C ,  2-H ) :   0.9732 B(  0-C ,  3-H ) :   0.9733
B(  0-C ,  4-H ) :   0.9733 B(  1-C ,  5-H ) :   0.9733 B(  1-C ,  6-H ) :   0.9732
B(  1-C ,  7-H ) :   0.9732

FINAL SINGLE POINT ENERGY       -79.749757200438

DIPOLE MOMENT
-------------
                                X             Y             Z
Electronic contribution:      0.00002       0.00014      -0.00004
Nuclear contribution   :     -0.00006      -0.00012      -0.00001
                        -----------------------------------------
Total Dipole Moment    :     -0.00004       0.00002      -0.00005
                        -----------------------------------------
Magnitude (a.u.)       :      0.00006
Magnitude (Debye)      :      0.00016

CHEMICAL SHIELDING SUMMARY (ppm)
--------------------------------

  Nucleus  Element    Isotropic     Anisotropy
  -------  -------  ------------   ------------
      0       C          178.722         13.931
      1       C          178.712         13.940
      2       H           30.822          9.051
      3       H           30.823          9.052
      4       H           30.822          9.050
      5       H           30.823          9.048
      6       H           30.824          9.050
      7       H           30.824          9.050

VIBRATIONAL FREQUENCIES
-----------------------

Scaling factor for frequencies =  1.000000000 (already applied!)

   0:         0.00 cm**-1
   1:         0.00 cm**-1
   2:         0.00 cm**-1
   3:         0.00 cm**-1
   4:         0.00 cm**-1
   5:         0.00 cm**-1
   6:       311.63 cm**-1
   7:       828.90 cm**-1
   8:       829.67 cm**-1
   9:       988.85 cm**-1
  10:      1215.13 cm**-1
  11:      1215.60 cm**-1
  12:      1385.02 cm**-1
  13:      1396.56 cm**-1
  14:      1492.48 cm**-1
  15:      1492.93 cm**-1
  16:      1494.82 cm**-1
  17:      1495.32 cm**-1
  18:      3045.63 cm**-1
  19:      3046.77 cm**-1
  20:      3112.72 cm**-1
  21:      3113.33 cm**-1
  22:      3136.72 cm**-1
  23:      3137.13 cm**-1

IR SPECTRUM
-----------

 Mode   freq       eps      Int      T**2         TX        TY        TZ
       cm**-1   L/(mol*cm) km/mol    a.u.
----------------------------------------------------------------------------
  6:    311.63   0.000020    0.10  0.000020  (-0.000160  0.004503 -0.000378)
  7:    828.90   0.001150    5.81  0.000433  ( 0.000635 -0.019990  0.005750)
  8:    829.67   0.001169    5.91  0.000440  ( 0.001828  0.006542  0.019842)
  9:    988.85   0.000000    0.00  0.000000  (-0.000011  0.000137  0.000045)
 10:   1215.13   0.000003    0.02  0.000001  (-0.000002 -0.000488 -0.000772)
 11:   1215.60   0.000006    0.03  0.000002  (-0.000059  0.001254  0.000099)
 12:   1385.02   0.000679    3.43  0.000153  ( 0.012322  0.000152 -0.001114)
 13:   1396.56   0.000001    0.00  0.000000  (-0.000345 -0.000116 -0.000082)
 14:   1492.48   0.000394    1.99  0.000082  (-0.000328 -0.007536 -0.005048)
 15:   1492.93   0.000204    1.03  0.000043  ( 0.000397 -0.005356  0.003725)
 16:   1494.82   0.001607    8.12  0.000336  ( 0.001292 -0.012538  0.013293)
 17:   1495.32   0.001815    9.17  0.000379  ( 0.001170  0.014750  0.012644)
 18:   3045.63   0.000015    0.07  0.000002  (-0.001180  0.000217  0.000272)
 19:   3046.77   0.010400   52.55  0.001065  ( 0.032548  0.000251 -0.002399)
 20:   3112.72   0.000001    0.01  0.000000  (-0.000219 -0.000308 -0.000028)
 21:   3113.33   0.000000    0.00  0.000000  (-0.000102  0.000149 -0.000004)
 22:   3136.72   0.009759   49.32  0.000971  (-0.002168 -0.012016 -0.028667)
 23:   3137.13   0.009844   49.75  0.000979  ( 0.001040 -0.029035  0.011623)

--------------------------
THERMOCHEMISTRY AT 298.15K
--------------------------

Temperature         ... 298.15 K
Pressure            ... 1.00 atm
Total Mass          ... 30.07 AMU

Throughout the following assumptions are being made:
  (1) The electronic state is orbitally nondegenerate
  (2) There are no thermally accessible electronically excited states
  (3) Hindered rotations indicated by low frequency modes are not
      treated as such but are treated as vibrations and this may
      cause some error
  (4) All equations used are the standard statistical mechanics
      equations for an ideal gas
  (5) All vibrations are strictly harmonic

freq.     311.63  E(vib)   ...       0.25
freq.     828.90  E(vib)   ...       0.04
freq.     829.67  E(vib)   ...       0.04
freq.     988.85  E(vib)   ...       0.02
freq.    1215.13  E(vib)   ...       0.01
freq.    1215.60  E(vib)   ...       0.01
freq.    1385.02  E(vib)   ...       0.00
freq.    1396.56  E(vib)   ...       0.00
freq.    1492.48  E(vib)   ...       0.00
freq.    1492.93  E(vib)   ...       0.00
freq.    1494.82  E(vib)   ...       0.00
freq.    1495.32  E(vib)   ...       0.00
freq.    3045.63  E(vib)   ...       0.00
freq.    3046.77  E(vib)   ...       0.00
freq.    3112.72  E(vib)   ...       0.00
freq.    3113.33  E(vib)   ...       0.00
freq.    3136.72  E(vib)   ...       0.00
freq.    3137.13  E(vib)   ...       0.00

------------
INNER ENERGY
------------

The inner energy is: U= E(el) + E(ZPE) + E(vib) + E(rot) + E(trans)
    E(el)   - is the total energy from the electronic structure calculation
              = E(kin-el) + E(nuc-el) + E(el-el) + E(nuc-nuc)
    E(ZPE)  - the the zero temperature vibrational energy from the frequency calculation
    E(vib)  - the the finite temperature correction to E(ZPE) due to population
              of excited vibrational states
    E(rot)  - is the rotational thermal energy
    E(trans)- is the translational thermal energy

Summary of contributions to the inner energy U:
Electronic energy                ...    -79.74975720 Eh
Zero point energy                ...      0.07458546 Eh      46.80 kcal/mol
Thermal vibrational correction   ...      0.00065219 Eh       0.41 kcal/mol
Thermal rotational correction    ...      0.00141627 Eh       0.89 kcal/mol
Thermal translational correction ...      0.00141627 Eh       0.89 kcal/mol
-----------------------------------------------------------------------
Total thermal energy                    -79.67168700 Eh

Summary of corrections to the electronic energy:
(perhaps to be used in another calculation)
Total thermal correction                  0.00348474 Eh       2.19 kcal/mol
Non-thermal (ZPE) correction              0.07458546 Eh      46.80 kcal/mol
-----------------------------------------------------------------------
Total correction                          0.07807020 Eh      48.99 kcal/mol

--------
ENTHALPY
--------

The enthalpy is H = U + kB*T
                kB is Boltzmann's constant
Total free energy                 ...    -79.67168700 Eh
Thermal Enthalpy correction       ...      0.00094421 Eh       0.59 kcal/mol
-----------------------------------------------------------------------
Total Enthalpy                    ...    -79.67074279 Eh

Note: Rotational entropy computed according to Herzberg
Infrared and Raman Spectra, Chapter V,1, Van Nostrand Reinhold, 1945
Point Group:  D3, Symmetry Number:   6
Rotational constants in cm-1:     2.659367     0.665332     0.665326

Vibrational entropy computed according to the QRRHO of S. Grimme
Chem.Eur.J. 2012 18 9955

-------
ENTROPY
-------

The entropy contributions are T*S = T*(S(el)+S(vib)+S(rot)+S(trans))
     S(el)   - electronic entropy
     S(vib)  - vibrational entropy
     S(rot)  - rotational entropy
     S(trans)- translational entropy
The entropies will be listed as multiplied by the temperature to get
units of energy

Electronic entropy                ...      0.00000000 Eh      0.00 kcal/mol
Vibrational entropy               ...      0.00094489 Eh      0.59 kcal/mol
Rotational entropy                ...      0.00774205 Eh      4.86 kcal/mol
Translational entropy             ...      0.01716939 Eh     10.77 kcal/mol
-----------------------------------------------------------------------
Final entropy term                ...      0.02585633 Eh     16.23 kcal/mol

In case the symmetry of your molecule has not been determined correctly
or in case you have a reason to use a different symmetry number we print
out the resulting rotational entropy values for sn=1,12 :
 --------------------------------------------------------
|  sn= 1 | S(rot)=       0.00943379 Eh      5.92 kcal/mol|
|  sn= 2 | S(rot)=       0.00877934 Eh      5.51 kcal/mol|
|  sn= 3 | S(rot)=       0.00839650 Eh      5.27 kcal/mol|
|  sn= 4 | S(rot)=       0.00812488 Eh      5.10 kcal/mol|
|  sn= 5 | S(rot)=       0.00791419 Eh      4.97 kcal/mol|
|  sn= 6 | S(rot)=       0.00774205 Eh      4.86 kcal/mol|
|  sn= 7 | S(rot)=       0.00759650 Eh      4.77 kcal/mol|
|  sn= 8 | S(rot)=       0.00747042 Eh      4.69 kcal/mol|
|  sn= 9 | S(rot)=       0.00735922 Eh      4.62 kcal/mol|
|  sn=10 | S(rot)=       0.00725974 Eh      4.56 kcal/mol|
|  sn=11 | S(rot)=       0.00716975 Eh      4.50 kcal/mol|
|  sn=12 | S(rot)=       0.00708759 Eh      4.45 kcal/mol|
 --------------------------------------------------------

-------------------
GIBBS FREE ENERGY
-------------------

The Gibbs free energy is G = H - T*S

Total enthalpy                    ...    -79.67074279 Eh
Total entropy correction          ...     -0.02585633 Eh    -16.23 kcal/mol
-----------------------------------------------------------------------
Final Gibbs free energy         ...    -79.69659912 Eh

For completeness - the Gibbs free energy minus the electronic energy
G-E(el)                           ...      0.05315808 Eh     33.36 kcal/mol

                             ****ORCA TERMINATED NORMALLY****
TOTAL RUN TIME: 0 days 0 hours 3 minutes 31 seconds 896 msec
