                         Program Version 5.0.3 -  RELEASE  -
|  1> ! PAL5 PBE0 NumFreq
|  2> %method
|  3>         method DFT
|  4>         runtyp Energy
|  5> end
|  6> %basis
|  7>         basis "def2-TZVP"
|  8> end
|  9> %coords
| 10>         CTyp xyz
| 11>         Charge 0
| 12>         Mult 1
| 13>         Units Angs
| 14>         coords
| 15> 	#33.3
| 16> 	C      0.901163    0.213223   -0.028373
| 17> 	C      2.433052    0.225083   -0.148833
| 18> 	H      0.592926   -0.349917    0.855372
| 19> 	H      0.453487   -0.251684   -0.909614
| 20> 	H      0.518097    1.232493    0.058629
| 21> 	H      2.763812   -0.521759   -0.874150
| 22> 	H      2.781611    1.206533   -0.477840
| 23> 	H      2.892631   -0.000931    0.815945
| 24> 	end
| 25> end
| 26> %eprnmr
| 27>         NMRShielding 1
| 28>         Nuclei = all C {shift}
| 29>         Nuclei = all H {shift}
| 30> end
| 31>
| 32>                          ****END OF INPUT****

CARTESIAN COORDINATES (ANGSTROEM)
---------------------------------
  C      0.901163    0.213223   -0.028373
  C      2.433052    0.225083   -0.148833
  H      0.592926   -0.349917    0.855372
  H      0.453487   -0.251684   -0.909614
  H      0.518097    1.232493    0.058629
  H      2.763812   -0.521759   -0.874150
  H      2.781611    1.206533   -0.477840
  H      2.892631   -0.000931    0.815945

 Total Charge           Charge          ....    0
 Multiplicity           Mult            ....    1
 Number of Electrons    NEL             ....   18
 Basis Dimension        Dim             ....   98

ORBITAL ENERGIES
----------------

  NO   OCC          E(Eh)            E(eV)
   0   2.0000     -10.206436      -277.7312
   1   2.0000     -10.206216      -277.7253
   2   2.0000      -0.773146       -21.0384
   3   2.0000      -0.630798       -17.1649
   4   2.0000      -0.448966       -12.2170
   5   2.0000      -0.448955       -12.2167
   6   2.0000      -0.373618       -10.1667
   7   2.0000      -0.351843        -9.5741
   8   2.0000      -0.351826        -9.5737
   9   0.0000       0.053050         1.4436
  10   0.0000       0.090246         2.4557
  11   0.0000       0.104440         2.8420
  12   0.0000       0.104443         2.8420
  13   0.0000       0.169774         4.6198

MULLIKEN ATOMIC CHARGES
-----------------------
   0 C :   -0.346725
   1 C :   -0.346378
   2 H :    0.115534
   3 H :    0.115573
   4 H :    0.115524
   5 H :    0.115443
   6 H :    0.115521
   7 H :    0.115508
Sum of atomic charges:   -0.0000000

LOEWDIN ATOMIC CHARGES
----------------------
   0 C :   -0.349687
   1 C :   -0.349654
   2 H :    0.116558
   3 H :    0.116564
   4 H :    0.116568
   5 H :    0.116563
   6 H :    0.116540
   7 H :    0.116549

  Mayer bond orders larger than 0.100000
B(  0-C ,  1-C ) :   0.9874 B(  0-C ,  2-H ) :   0.9757 B(  0-C ,  3-H ) :   0.9757
B(  0-C ,  4-H ) :   0.9757 B(  1-C ,  5-H ) :   0.9757 B(  1-C ,  6-H ) :   0.9757
B(  1-C ,  7-H ) :   0.9757

FINAL SINGLE POINT ENERGY       -79.746673475689

DIPOLE MOMENT
-------------
                                X             Y             Z
Electronic contribution:      0.00004       0.00016       0.00002
Nuclear contribution   :     -0.00006      -0.00014      -0.00003
                        -----------------------------------------
Total Dipole Moment    :     -0.00002       0.00002      -0.00001
                        -----------------------------------------
Magnitude (a.u.)       :      0.00004
Magnitude (Debye)      :      0.00009

CHEMICAL SHIELDING SUMMARY (ppm)
--------------------------------

  Nucleus  Element    Isotropic     Anisotropy
  -------  -------  ------------   ------------
      0       C          182.302         18.302
      1       C          182.291         18.300
      2       H           30.797          9.156
      3       H           30.795          9.155
      4       H           30.796          9.155
      5       H           30.796          9.154
      6       H           30.798          9.155
      7       H           30.798          9.152

VIBRATIONAL FREQUENCIES
-----------------------

Scaling factor for frequencies =  1.000000000 (already applied!)

   0:         0.00 cm**-1
   1:         0.00 cm**-1
   2:         0.00 cm**-1
   3:         0.00 cm**-1
   4:         0.00 cm**-1
   5:         0.00 cm**-1
   6:      -145.91 cm**-1 ***imaginary mode***
   7:       890.90 cm**-1
   8:       892.10 cm**-1
   9:      1013.68 cm**-1
  10:      1191.54 cm**-1
  11:      1191.87 cm**-1
  12:      1386.10 cm**-1
  13:      1414.42 cm**-1
  14:      1491.42 cm**-1
  15:      1492.03 cm**-1
  16:      1501.21 cm**-1
  17:      1501.50 cm**-1
  18:      3042.51 cm**-1
  19:      3047.34 cm**-1
  20:      3111.59 cm**-1
  21:      3112.28 cm**-1
  22:      3134.85 cm**-1
  23:      3135.58 cm**-1

IR SPECTRUM
-----------

 Mode   freq       eps      Int      T**2         TX        TY        TZ
       cm**-1   L/(mol*cm) km/mol    a.u.
----------------------------------------------------------------------------
  7:    890.90   0.000847    4.28  0.000297  ( 0.001028 -0.014259  0.009602)
  8:    892.10   0.000997    5.04  0.000349  ( 0.001265  0.009813  0.015838)
  9:   1013.68   0.000000    0.00  0.000000  (-0.000007 -0.000077 -0.000089)
 10:   1191.54   0.000006    0.03  0.000002  (-0.000007  0.000629  0.001096)
 11:   1191.87   0.000017    0.09  0.000005  ( 0.000028  0.001854 -0.001054)
 12:   1386.10   0.000709    3.58  0.000160  (-0.012557 -0.000381  0.001312)
 13:   1414.42   0.000001    0.00  0.000000  ( 0.000085  0.000411  0.000088)
 14:   1491.42   0.000191    0.96  0.000040  ( 0.000168 -0.004157  0.004757)
 15:   1492.03   0.000076    0.38  0.000016  ( 0.000069  0.002195  0.003323)
 16:   1501.21   0.002367   11.96  0.000492  (-0.001323 -0.013026 -0.017903)
 17:   1501.50   0.001993   10.07  0.000414  ( 0.001275 -0.015974  0.012545)
 18:   3042.51   0.010869   54.93  0.001115  (-0.033286 -0.000585  0.002552)
 19:   3047.34   0.000013    0.07  0.000001  (-0.000877 -0.000771  0.000062)
 20:   3111.59   0.000003    0.01  0.000000  ( 0.000160  0.000409 -0.000246)
 21:   3112.28   0.000003    0.02  0.000000  (-0.000070  0.000518  0.000245)
 22:   3134.85   0.008711   44.02  0.000867  (-0.001330 -0.024099 -0.016872)
 23:   3135.58   0.009003   45.50  0.000896  (-0.001841  0.017294 -0.024362)

--------------------------
THERMOCHEMISTRY AT 298.15K
--------------------------

Temperature         ... 298.15 K
Pressure            ... 1.00 atm
Total Mass          ... 30.07 AMU

Throughout the following assumptions are being made:
  (1) The electronic state is orbitally nondegenerate
  (2) There are no thermally accessible electronically excited states
  (3) Hindered rotations indicated by low frequency modes are not
      treated as such but are treated as vibrations and this may
      cause some error
  (4) All equations used are the standard statistical mechanics
      equations for an ideal gas
  (5) All vibrations are strictly harmonic

freq.     890.90  E(vib)   ...       0.04
freq.     892.10  E(vib)   ...       0.03
freq.    1013.68  E(vib)   ...       0.02
freq.    1191.54  E(vib)   ...       0.01
freq.    1191.87  E(vib)   ...       0.01
freq.    1386.10  E(vib)   ...       0.00
freq.    1414.42  E(vib)   ...       0.00
freq.    1491.42  E(vib)   ...       0.00
freq.    1492.03  E(vib)   ...       0.00
freq.    1501.21  E(vib)   ...       0.00
freq.    1501.50  E(vib)   ...       0.00
freq.    3042.51  E(vib)   ...       0.00
freq.    3047.34  E(vib)   ...       0.00
freq.    3111.59  E(vib)   ...       0.00
freq.    3112.28  E(vib)   ...       0.00
freq.    3134.85  E(vib)   ...       0.00
freq.    3135.58  E(vib)   ...       0.00

------------
INNER ENERGY
------------

The inner energy is: U= E(el) + E(ZPE) + E(vib) + E(rot) + E(trans)
    E(el)   - is the total energy from the electronic structure calculation
              = E(kin-el) + E(nuc-el) + E(el-el) + E(nuc-nuc)
    E(ZPE)  - the the zero temperature vibrational energy from the frequency calculation
    E(vib)  - the the finite temperature correction to E(ZPE) due to population
              of excited vibrational states
    E(rot)  - is the rotational thermal energy
    E(trans)- is the translational thermal energy

Summary of contributions to the inner energy U:
Electronic energy                ...    -79.74667348 Eh
Zero point energy                ...      0.07415650 Eh      46.53 kcal/mol
Thermal vibrational correction   ...      0.00021597 Eh       0.14 kcal/mol
Thermal rotational correction    ...      0.00141627 Eh       0.89 kcal/mol
Thermal translational correction ...      0.00141627 Eh       0.89 kcal/mol
-----------------------------------------------------------------------
Total thermal energy                    -79.66946846 Eh

Summary of corrections to the electronic energy:
(perhaps to be used in another calculation)
Total thermal correction                  0.00304851 Eh       1.91 kcal/mol
Non-thermal (ZPE) correction              0.07415650 Eh      46.53 kcal/mol
-----------------------------------------------------------------------
Total correction                          0.07720501 Eh      48.45 kcal/mol

--------
ENTHALPY
--------

The enthalpy is H = U + kB*T
                kB is Boltzmann's constant
Total free energy                 ...    -79.66946846 Eh
Thermal Enthalpy correction       ...      0.00094421 Eh       0.59 kcal/mol
-----------------------------------------------------------------------
Total Enthalpy                    ...    -79.66852425 Eh

Note: Rotational entropy computed according to Herzberg
Infrared and Raman Spectra, Chapter V,1, Van Nostrand Reinhold, 1945
Point Group:  D3, Symmetry Number:   6
Rotational constants in cm-1:     2.659369     0.665332     0.665327

Vibrational entropy computed according to the QRRHO of S. Grimme
Chem.Eur.J. 2012 18 9955

-------
ENTROPY
-------

The entropy contributions are T*S = T*(S(el)+S(vib)+S(rot)+S(trans))
     S(el)   - electronic entropy
     S(vib)  - vibrational entropy
     S(rot)  - rotational entropy
     S(trans)- translational entropy
The entropies will be listed as multiplied by the temperature to get
units of energy

Electronic entropy                ...      0.00000000 Eh      0.00 kcal/mol
Vibrational entropy               ...      0.00025993 Eh      0.16 kcal/mol
Rotational entropy                ...      0.00774205 Eh      4.86 kcal/mol
Translational entropy             ...      0.01716939 Eh     10.77 kcal/mol
-----------------------------------------------------------------------
Final entropy term                ...      0.02517137 Eh     15.80 kcal/mol

In case the symmetry of your molecule has not been determined correctly
or in case you have a reason to use a different symmetry number we print
out the resulting rotational entropy values for sn=1,12 :
 --------------------------------------------------------
|  sn= 1 | S(rot)=       0.00943379 Eh      5.92 kcal/mol|
|  sn= 2 | S(rot)=       0.00877934 Eh      5.51 kcal/mol|
|  sn= 3 | S(rot)=       0.00839650 Eh      5.27 kcal/mol|
|  sn= 4 | S(rot)=       0.00812488 Eh      5.10 kcal/mol|
|  sn= 5 | S(rot)=       0.00791419 Eh      4.97 kcal/mol|
|  sn= 6 | S(rot)=       0.00774205 Eh      4.86 kcal/mol|
|  sn= 7 | S(rot)=       0.00759650 Eh      4.77 kcal/mol|
|  sn= 8 | S(rot)=       0.00747042 Eh      4.69 kcal/mol|
|  sn= 9 | S(rot)=       0.00735921 Eh      4.62 kcal/mol|
|  sn=10 | S(rot)=       0.00725973 Eh      4.56 kcal/mol|
|  sn=11 | S(rot)=       0.00716974 Eh      4.50 kcal/mol|
|  sn=12 | S(rot)=       0.00708759 Eh      4.45 kcal/mol|
 --------------------------------------------------------

-------------------
GIBBS FREE ENERGY
-------------------

The Gibbs free energy is G = H - T*S

Total enthalpy                    ...    -79.66852425 Eh
Total entropy correction          ...     -0.02517137 Eh    -15.80 kcal/mol
-----------------------------------------------------------------------
Final Gibbs free energy         ...    -79.69369562 Eh

For completeness - the Gibbs free energy minus the electronic energy
G-E(el)                           ...      0.05297785 Eh     33.24 kcal/mol

                             ****ORCA TERMINATED NORMALLY****
TOTAL RUN TIME: 0 days 0 hours 3 minutes 23 seconds 24 msec
