                         Program Version 5.0.3 -  RELEASE  -
|  1> ! PBE0 NumFreq
|  2> %method
|  3>         method DFT
|  4>         runtyp Energy
|  5> end
|  6> %basis
|  7>         basis "def2-TZVP"
|  8> end
|  9> %coords
| 10>         CTyp xyz
| 11>         Charge 0
| 12>         Mult 1
| 13>         Units Angs
| 14>         coords
| 15> 	#150
| 16> 	N     -1.011290    0.960957    0.000001
| 17> 	C     -0.010067    0.911446   -0.578017
| 18> 	H     -2.068270    1.013340    0.000003
| 19> 	end
| 20> end
| 21> %eprnmr
| 22>         NMRShielding 1
| 23>         Nuclei = all N {shift}
| 24>         Nuclei = all C {shift}
| 25>         Nuclei = all H {shift}
| 26> end
| 27>
| 28>                          ****END OF INPUT****

CARTESIAN COORDINATES (ANGSTROEM)
---------------------------------
  N     -1.011290    0.960957    0.000001
  C     -0.010067    0.911446   -0.578017
  H     -2.068270    1.013340    0.000003

 Total Charge           Charge          ....    0
 Multiplicity           Mult            ....    1
 Number of Electrons    NEL             ....   14
 Basis Dimension        Dim             ....   68

ORBITAL ENERGIES
----------------

  NO   OCC          E(Eh)            E(eV)
   0   2.0000     -14.426485      -392.5646
   1   2.0000     -10.277179      -279.6563
   2   2.0000      -0.984097       -26.7786
   3   2.0000      -0.659522       -17.9465
   4   2.0000      -0.407384       -11.0855
   5   2.0000      -0.400310       -10.8930
   6   2.0000      -0.335019        -9.1163
   7   0.0000      -0.019107        -0.5199
   8   0.0000       0.020735         0.5642
   9   0.0000       0.044035         1.1983
  10   0.0000       0.155377         4.2280
  11   0.0000       0.225548         6.1375

MULLIKEN ATOMIC CHARGES
-----------------------
   0 N :   -0.148976
   1 C :   -0.168049
   2 H :    0.317025
Sum of atomic charges:   -0.0000000

LOEWDIN ATOMIC CHARGES
----------------------
   0 N :    0.034734
   1 C :   -0.240243
   2 H :    0.205509

  Mayer bond orders larger than 0.100000
B(  0-N ,  1-C ) :   2.4519 B(  0-N ,  2-H ) :   0.8487

FINAL SINGLE POINT ENERGY       -93.316711844051

DIPOLE MOMENT
-------------
                                X             Y             Z
Electronic contribution:      0.18906      -0.00937      -0.03500
Nuclear contribution   :     -1.37434       0.06807       0.24242
                        -----------------------------------------
Total Dipole Moment    :     -1.18528       0.05870       0.20742
                        -----------------------------------------
Magnitude (a.u.)       :      1.20472
Magnitude (Debye)      :      3.06215

CHEMICAL SHIELDING SUMMARY (ppm)
--------------------------------

  Nucleus  Element    Isotropic     Anisotropy
  -------  -------  ------------   ------------
      0       N           90.594        369.844
      1       C           -8.436        394.963
      2       H           24.948         17.926

VIBRATIONAL FREQUENCIES
-----------------------

Scaling factor for frequencies =  1.000000000 (already applied!)

   0:         0.00 cm**-1
   1:         0.00 cm**-1
   2:         0.00 cm**-1
   3:         0.00 cm**-1
   4:         0.00 cm**-1
   5:         0.00 cm**-1
   6:       888.12 cm**-1
   7:      2168.05 cm**-1
   8:      3164.67 cm**-1

IR SPECTRUM
-----------

 Mode   freq       eps      Int      T**2         TX        TY        TZ
       cm**-1   L/(mol*cm) km/mol    a.u.
----------------------------------------------------------------------------
  6:    888.12   0.032213  162.79  0.011319  (-0.025840  0.001257  0.103197)
  7:   2168.05   0.012241   61.86  0.001762  ( 0.029257 -0.001426 -0.030066)
  8:   3164.67   0.051521  260.37  0.005080  (-0.070579  0.003551  0.009295)

--------------------------
THERMOCHEMISTRY AT 298.15K
--------------------------

Temperature         ... 298.15 K
Pressure            ... 1.00 atm
Total Mass          ... 27.03 AMU

Throughout the following assumptions are being made:
  (1) The electronic state is orbitally nondegenerate
  (2) There are no thermally accessible electronically excited states
  (3) Hindered rotations indicated by low frequency modes are not
      treated as such but are treated as vibrations and this may
      cause some error
  (4) All equations used are the standard statistical mechanics
      equations for an ideal gas
  (5) All vibrations are strictly harmonic

freq.     888.12  E(vib)   ...       0.04
freq.    2168.05  E(vib)   ...       0.00
freq.    3164.67  E(vib)   ...       0.00

------------
INNER ENERGY
------------

The inner energy is: U= E(el) + E(ZPE) + E(vib) + E(rot) + E(trans)
    E(el)   - is the total energy from the electronic structure calculation
              = E(kin-el) + E(nuc-el) + E(el-el) + E(nuc-nuc)
    E(ZPE)  - the the zero temperature vibrational energy from the frequency calculation
    E(vib)  - the the finite temperature correction to E(ZPE) due to population
              of excited vibrational states
    E(rot)  - is the rotational thermal energy
    E(trans)- is the translational thermal energy

Summary of contributions to the inner energy U:
Electronic energy                ...    -93.31671184 Eh
Zero point energy                ...      0.01417213 Eh       8.89 kcal/mol
Thermal vibrational correction   ...      0.00005676 Eh       0.04 kcal/mol
Thermal rotational correction    ...      0.00141627 Eh       0.89 kcal/mol
Thermal translational correction ...      0.00141627 Eh       0.89 kcal/mol
-----------------------------------------------------------------------
Total thermal energy                    -93.29965041 Eh

Summary of corrections to the electronic energy:
(perhaps to be used in another calculation)
Total thermal correction                  0.00288930 Eh       1.81 kcal/mol
Non-thermal (ZPE) correction              0.01417213 Eh       8.89 kcal/mol
-----------------------------------------------------------------------
Total correction                          0.01706143 Eh      10.71 kcal/mol

--------
ENTHALPY
--------

The enthalpy is H = U + kB*T
                kB is Boltzmann's constant
Total free energy                 ...    -93.29965041 Eh
Thermal Enthalpy correction       ...      0.00094421 Eh       0.59 kcal/mol
-----------------------------------------------------------------------
Total Enthalpy                    ...    -93.29870620 Eh

Note: Rotational entropy computed according to Herzberg
Infrared and Raman Spectra, Chapter V,1, Van Nostrand Reinhold, 1945
Point Group:  Cs, Symmetry Number:   1
Rotational constants in cm-1:    77.213319     1.567544     1.536354

Vibrational entropy computed according to the QRRHO of S. Grimme
Chem.Eur.J. 2012 18 9955

-------
ENTROPY
-------

The entropy contributions are T*S = T*(S(el)+S(vib)+S(rot)+S(trans))
     S(el)   - electronic entropy
     S(vib)  - vibrational entropy
     S(rot)  - rotational entropy
     S(trans)- translational entropy
The entropies will be listed as multiplied by the temperature to get
units of energy

Electronic entropy                ...      0.00000000 Eh      0.00 kcal/mol
Vibrational entropy               ...      0.00006991 Eh      0.04 kcal/mol
Rotational entropy                ...      0.00704390 Eh      4.42 kcal/mol
Translational entropy             ...      0.01701823 Eh     10.68 kcal/mol
-----------------------------------------------------------------------
Final entropy term                ...      0.02413205 Eh     15.14 kcal/mol

In case the symmetry of your molecule has not been determined correctly
or in case you have a reason to use a different symmetry number we print
out the resulting rotational entropy values for sn=1,12 :
 --------------------------------------------------------
|  sn= 1 | S(rot)=       0.00704390 Eh      4.42 kcal/mol|
|  sn= 2 | S(rot)=       0.00638945 Eh      4.01 kcal/mol|
|  sn= 3 | S(rot)=       0.00600662 Eh      3.77 kcal/mol|
|  sn= 4 | S(rot)=       0.00573499 Eh      3.60 kcal/mol|
|  sn= 5 | S(rot)=       0.00552430 Eh      3.47 kcal/mol|
|  sn= 6 | S(rot)=       0.00535216 Eh      3.36 kcal/mol|
|  sn= 7 | S(rot)=       0.00520661 Eh      3.27 kcal/mol|
|  sn= 8 | S(rot)=       0.00508054 Eh      3.19 kcal/mol|
|  sn= 9 | S(rot)=       0.00496933 Eh      3.12 kcal/mol|
|  sn=10 | S(rot)=       0.00486985 Eh      3.06 kcal/mol|
|  sn=11 | S(rot)=       0.00477986 Eh      3.00 kcal/mol|
|  sn=12 | S(rot)=       0.00469770 Eh      2.95 kcal/mol|
 --------------------------------------------------------

-------------------
GIBBS FREE ENERGY
-------------------

The Gibbs free energy is G = H - T*S

Total enthalpy                    ...    -93.29870620 Eh
Total entropy correction          ...     -0.02413205 Eh    -15.14 kcal/mol
-----------------------------------------------------------------------
Final Gibbs free energy         ...    -93.32283825 Eh

For completeness - the Gibbs free energy minus the electronic energy
G-E(el)                           ...     -0.00612641 Eh     -3.84 kcal/mol

                             ****ORCA TERMINATED NORMALLY****
TOTAL RUN TIME: 0 days 0 hours 3 minutes 0 seconds 413 msec
