                         Program Version 5.0.3 -  RELEASE  -
|  1> ! PAL5 VWN
|  2> %method
|  3>         method DFT
|  4>         runtyp OPT
|  5> end
|  6>
|  7> %scf
|  8>        MaxIter 500
|  9> end
| 10> %geom
| 11>        MaxIter 500
| 12>        Convergence loose
| 13> end
| 14>
| 15> %basis
| 16>         basis "def2-SVP"
| 17> end
| 18> ! NumFreq
| 19> %elprop
| 20>         Polar 1
| 21> end
| 22> %output
| 23>         XYZFile true
| 24> end
| 25> %coords
| 26>         CTyp xyz
| 27>         Charge 0
| 28>         Mult 2
| 29>         Units Angs
| 30>         coords
| 31> 	Ti    -1.671960    2.457770   -0.000000
| 32> 	O     -3.066310    1.598560   -0.000001
| 33> 	O     -0.110402    3.419370    0.000000
| 34> 	H      0.603334    2.732930    0.000000
| 35>         end
| 36> endd                         ****END OF INPUT****
 Total Charge           Charge          ....    0
 Multiplicity           Mult            ....    2
 Number of Electrons    NEL             ....   39
FINAL SINGLE POINT ENERGY      -997.207792209294
FINAL SINGLE POINT ENERGY      -997.210613905876
FINAL SINGLE POINT ENERGY      -997.218470789655
FINAL SINGLE POINT ENERGY      -997.221524924068
FINAL SINGLE POINT ENERGY      -997.223663918616
FINAL SINGLE POINT ENERGY      -997.229180472234
FINAL SINGLE POINT ENERGY      -997.238563907586
FINAL SINGLE POINT ENERGY      -997.250256859687
FINAL SINGLE POINT ENERGY      -997.256251318481
FINAL SINGLE POINT ENERGY      -997.258553087640
FINAL SINGLE POINT ENERGY      -997.251680442175
FINAL SINGLE POINT ENERGY      -997.259165465222
FINAL SINGLE POINT ENERGY      -997.259534279420
FINAL SINGLE POINT ENERGY      -997.260207200048
FINAL SINGLE POINT ENERGY      -997.262612723966
FINAL SINGLE POINT ENERGY      -997.265239121446
FINAL SINGLE POINT ENERGY      -997.266942633829
FINAL SINGLE POINT ENERGY      -997.266969162676
FINAL SINGLE POINT ENERGY      -997.266975588384
                    ***********************HURRAY********************

CARTESIAN COORDINATES (ANGSTROEM)
---------------------------------
  Ti    -2.028731    3.025982    0.000001
  O     -2.339098    1.463999   -0.000001
  O     -0.271153    3.215601   -0.000001
  H      0.393644    2.503047   -0.000000

 Multiplicity           Mult            ....    2
 Number of Electrons    NEL             ....   39
 Basis Dimension        Dim             ....   64

ORBITAL ENERGIES
----------------
                 SPIN UP ORBITALS
  NO   OCC          E(Eh)            E(eV)
   0   1.0000    -177.174754     -4821.1702
   1   1.0000     -19.399348      -527.8831
   2   1.0000     -18.608699      -506.3684
   3   1.0000     -18.579020      -505.5608
   4   1.0000     -16.235578      -441.7925
   5   1.0000     -16.235019      -441.7773
   6   1.0000     -16.228417      -441.5977
   7   1.0000      -2.210746       -60.1575
   8   1.0000      -1.393955       -37.9315
   9   1.0000      -1.387512       -37.7561
  10   1.0000      -1.375661       -37.4336
  11   1.0000      -0.854555       -23.2536
  12   1.0000      -0.742903       -20.2154
  13   1.0000      -0.434489       -11.8231
  14   1.0000      -0.308678        -8.3996
  15   1.0000      -0.294906        -8.0248
  16   1.0000      -0.282961        -7.6998
  17   1.0000      -0.280521        -7.6334
  18   1.0000      -0.265170        -7.2157
  19   1.0000      -0.138785        -3.7765
  20   0.0000      -0.112799        -3.0694
  21   0.0000      -0.105414        -2.8685
  22   0.0000      -0.059730        -1.6253
  23   0.0000      -0.028188        -0.7670
  24   0.0000      -0.017480        -0.4756

                 SPIN DOWN ORBITALS
  NO   OCC          E(Eh)            E(eV)
   0   1.0000    -177.173891     -4821.1467
   1   1.0000     -19.394354      -527.7472
   2   1.0000     -18.609589      -506.3927
   3   1.0000     -18.580441      -505.5995
   4   1.0000     -16.232471      -441.7080
   5   1.0000     -16.229533      -441.6280
   6   1.0000     -16.224802      -441.4993
   7   1.0000      -2.196231       -59.7625
   8   1.0000      -1.383377       -37.6436
   9   1.0000      -1.373245       -37.3679
  10   1.0000      -1.356725       -36.9184
  11   1.0000      -0.855416       -23.2771
  12   1.0000      -0.744093       -20.2478
  13   1.0000      -0.433683       -11.8011
  14   1.0000      -0.307218        -8.3598
  15   1.0000      -0.293827        -7.9954
  16   1.0000      -0.281058        -7.6480
  17   1.0000      -0.279496        -7.6055
  18   1.0000      -0.263931        -7.1819
  19   0.0000      -0.103467        -2.8155
  20   0.0000      -0.094101        -2.5606
  21   0.0000      -0.085628        -2.3301
  22   0.0000      -0.046375        -1.2619
  23   0.0000      -0.018284        -0.4975

MULLIKEN ATOMIC CHARGES AND SPIN POPULATIONS
--------------------------------------------
   0 Ti:    0.520802    1.090339
   1 O :   -0.348336   -0.052245
   2 O :   -0.399721   -0.033890
   3 H :    0.227254   -0.004203
Sum of atomic charges         :   -0.0000000

LOEWDIN ATOMIC CHARGES AND SPIN POPULATIONS
-------------------------------------------
   0 Ti:    0.094517    1.063305
   1 O :   -0.101890   -0.040434
   2 O :   -0.102738   -0.023213
   3 H :    0.110111    0.000343

  Mayer bond orders larger than 0.100000
B(  0-Ti,  1-O ) :   2.3903 B(  0-Ti,  2-O ) :   1.3283 B(  2-O ,  3-H ) :   0.9341

FINAL SINGLE POINT ENERGY      -997.266976264990

DIPOLE MOMENT
-------------
                                X             Y             Z
Electronic contribution:     -3.13943       2.01817       0.00001
Nuclear contribution   :      3.14053      -1.25449      -0.00000
                        -----------------------------------------
Total Dipole Moment    :      0.00111       0.76369       0.00000
                        -----------------------------------------
Magnitude (a.u.)       :      0.76369
Magnitude (Debye)      :      1.94114

VIBRATIONAL FREQUENCIES
-----------------------

Scaling factor for frequencies =  1.000000000 (already applied!)

   0:         0.00 cm**-1
   1:         0.00 cm**-1
   2:         0.00 cm**-1
   3:         0.00 cm**-1
   4:         0.00 cm**-1
   5:         0.00 cm**-1
   6:       254.73 cm**-1
   7:       501.34 cm**-1
   8:       528.27 cm**-1
   9:       802.91 cm**-1
  10:      1099.07 cm**-1
  11:      3779.36 cm**-1

IR SPECTRUM
-----------

 Mode   freq       eps      Int      T**2         TX        TY        TZ
       cm**-1   L/(mol*cm) km/mol    a.u.
----------------------------------------------------------------------------
  6:    254.73   0.004578   23.13  0.005608  (-0.068759 -0.029669  0.000000)
  7:    501.34   0.026307  132.94  0.016375  (-0.000012 -0.000008  0.127964)
  8:    528.27   0.028275  142.89  0.016703  (-0.116331 -0.056301 -0.000009)
  9:    802.91   0.022805  115.25  0.008864  ( 0.094095 -0.003141 -0.000000)
 10:   1099.07   0.031160  157.47  0.008847  ( 0.018867  0.092149  0.000000)
 11:   3779.36   0.048570  245.45  0.004010  (-0.055879  0.029799 -0.000000)

--------------------------
THERMOCHEMISTRY AT 298.15K
--------------------------

Temperature         ... 298.15 K
Pressure            ... 1.00 atm
Total Mass          ... 80.91 AMU

Throughout the following assumptions are being made:
  (1) The electronic state is orbitally nondegenerate
      but the spin degeneracy is treated
  (2) There are no thermally accessible electronically excited states
  (3) Hindered rotations indicated by low frequency modes are not
      treated as such but are treated as vibrations and this may
      cause some error
  (4) All equations used are the standard statistical mechanics
      equations for an ideal gas
  (5) All vibrations are strictly harmonic

freq.     254.73  E(vib)   ...       0.30
freq.     501.34  E(vib)   ...       0.14
freq.     528.27  E(vib)   ...       0.13
freq.     802.91  E(vib)   ...       0.05
freq.    1099.07  E(vib)   ...       0.02
freq.    3779.36  E(vib)   ...       0.00

------------
INNER ENERGY
------------

The inner energy is: U= E(el) + E(ZPE) + E(vib) + E(rot) + E(trans)
    E(el)   - is the total energy from the electronic structure calculation
              = E(kin-el) + E(nuc-el) + E(el-el) + E(nuc-nuc)
    E(ZPE)  - the the zero temperature vibrational energy from the frequency calculation
    E(vib)  - the the finite temperature correction to E(ZPE) due to population
              of excited vibrational states
    E(rot)  - is the rotational thermal energy
    E(trans)- is the translational thermal energy

Summary of contributions to the inner energy U:
Electronic energy                ...   -997.26697627 Eh
Zero point energy                ...      0.01586901 Eh       9.96 kcal/mol
Thermal vibrational correction   ...      0.00100966 Eh       0.63 kcal/mol
Thermal rotational correction    ...      0.00141627 Eh       0.89 kcal/mol
Thermal translational correction ...      0.00141627 Eh       0.89 kcal/mol
-----------------------------------------------------------------------
Total thermal energy                   -997.24726505 Eh

Summary of corrections to the electronic energy:
(perhaps to be used in another calculation)
Total thermal correction                  0.00384221 Eh       2.41 kcal/mol
Non-thermal (ZPE) correction              0.01586901 Eh       9.96 kcal/mol
-----------------------------------------------------------------------
Total correction                          0.01971122 Eh      12.37 kcal/mol

--------
ENTHALPY
--------

The enthalpy is H = U + kB*T
                kB is Boltzmann's constant
Total free energy                 ...   -997.24726505 Eh
Thermal Enthalpy correction       ...      0.00094421 Eh       0.59 kcal/mol
-----------------------------------------------------------------------
Total Enthalpy                    ...   -997.24632084 Eh

Note: Rotational entropy computed according to Herzberg
Infrared and Raman Spectra, Chapter V,1, Van Nostrand Reinhold, 1945
Point Group:  Cs, Symmetry Number:   1
Rotational constants in cm-1:     0.809451     0.273700     0.204539

Vibrational entropy computed according to the QRRHO of S. Grimme
Chem.Eur.J. 2012 18 9955

-------
ENTROPY
-------

The entropy contributions are T*S = T*(S(el)+S(vib)+S(rot)+S(trans))
     S(el)   - electronic entropy
     S(vib)  - vibrational entropy
     S(rot)  - rotational entropy
     S(trans)- translational entropy
The entropies will be listed as multiplied by the temperature to get
units of energy

Electronic entropy                ...      0.00065446 Eh      0.41 kcal/mol
Vibrational entropy               ...      0.00152913 Eh      0.96 kcal/mol
Rotational entropy                ...      0.01097151 Eh      6.88 kcal/mol
Translational entropy             ...      0.01857116 Eh     11.65 kcal/mol
-----------------------------------------------------------------------
Final entropy term                ...      0.03172626 Eh     19.91 kcal/mol

In case the symmetry of your molecule has not been determined correctly
or in case you have a reason to use a different symmetry number we print
out the resulting rotational entropy values for sn=1,12 :
 --------------------------------------------------------
|  sn= 1 | S(rot)=       0.01097151 Eh      6.88 kcal/mol|
|  sn= 2 | S(rot)=       0.01031706 Eh      6.47 kcal/mol|
|  sn= 3 | S(rot)=       0.00993422 Eh      6.23 kcal/mol|
|  sn= 4 | S(rot)=       0.00966260 Eh      6.06 kcal/mol|
|  sn= 5 | S(rot)=       0.00945191 Eh      5.93 kcal/mol|
|  sn= 6 | S(rot)=       0.00927977 Eh      5.82 kcal/mol|
|  sn= 7 | S(rot)=       0.00913422 Eh      5.73 kcal/mol|
|  sn= 8 | S(rot)=       0.00900814 Eh      5.65 kcal/mol|
|  sn= 9 | S(rot)=       0.00889694 Eh      5.58 kcal/mol|
|  sn=10 | S(rot)=       0.00879746 Eh      5.52 kcal/mol|
|  sn=11 | S(rot)=       0.00870747 Eh      5.46 kcal/mol|
|  sn=12 | S(rot)=       0.00862531 Eh      5.41 kcal/mol|
 --------------------------------------------------------

-------------------
GIBBS FREE ENERGY
-------------------

The Gibbs free energy is G = H - T*S

Total enthalpy                    ...   -997.24632084 Eh
Total entropy correction          ...     -0.03172626 Eh    -19.91 kcal/mol
-----------------------------------------------------------------------
Final Gibbs free energy         ...   -997.27804710 Eh

For completeness - the Gibbs free energy minus the electronic energy
G-E(el)                           ...     -0.01107083 Eh     -6.95 kcal/mol

                             ****ORCA TERMINATED NORMALLY****
TOTAL RUN TIME: 0 days 0 hours 3 minutes 13 seconds 697 msec
