                         Program Version 5.0.3 -  RELEASE  -
|  1> ! PAL5 PBE0 NumFreq
|  2> %method
|  3>         method DFT
|  4>         runtyp Energy
|  5> end
|  6> %basis
|  7>         basis "def2-TZVP"
|  8> end
|  9> %coords
| 10>         CTyp xyz
| 11>         Charge 0
| 12>         Mult 1
| 13>         Units Angs
| 14>         coords
| 15> 	#120
| 16> 	C     -1.011290    0.960957    0.000001
| 17> 	N     -0.437789    0.932598   -1.004636
| 18> 	H     -2.068270    1.013340    0.000003
| 19> 	end
| 20> end
| 21> %eprnmr
| 22>         NMRShielding 1
| 23>         Nuclei = all N {shift}
| 24>         Nuclei = all C {shift}
| 25>         Nuclei = all H {shift}
| 26> endd                         ****END OF INPUT****

CARTESIAN COORDINATES (ANGSTROEM)
---------------------------------
  C     -1.011290    0.960957    0.000001
  N     -0.437789    0.932598   -1.004636
  H     -2.068270    1.013340    0.000003

 Total Charge           Charge          ....    0
 Multiplicity           Mult            ....    1
 Number of Electrons    NEL             ....   14
 Basis Dimension        Dim             ....   68

ORBITAL ENERGIES
----------------

  NO   OCC          E(Eh)            E(eV)
   0   2.0000     -14.425088      -392.5266
   1   2.0000     -10.272672      -279.5336
   2   2.0000      -0.967969       -26.3398
   3   2.0000      -0.600737       -16.3469
   4   2.0000      -0.424693       -11.5565
   5   2.0000      -0.389516       -10.5993
   6   2.0000      -0.375503       -10.2180
   7   0.0000      -0.071763        -1.9528
   8   0.0000       0.009220         0.2509
   9   0.0000       0.091320         2.4850
  10   0.0000       0.135184         3.6785
  11   0.0000       0.211469         5.7544

MULLIKEN ATOMIC CHARGES
-----------------------
   0 C :   -0.195004
   1 N :   -0.016395
   2 H :    0.211399
Sum of atomic charges:   -0.0000000

LOEWDIN ATOMIC CHARGES
----------------------
   0 C :   -0.233221
   1 N :    0.085313
   2 H :    0.147908

  Mayer bond orders larger than 0.100000
B(  0-C ,  1-N ) :   2.8975 B(  0-C ,  2-H ) :   0.9187

FINAL SINGLE POINT ENERGY       -93.309997178366

DIPOLE MOMENT
-------------
                                X             Y             Z
Electronic contribution:      0.46540      -0.02306      -0.03528
Nuclear contribution   :     -1.23177       0.06101       0.48583
                        -----------------------------------------
Total Dipole Moment    :     -0.76636       0.03796       0.45055
                        -----------------------------------------
Magnitude (a.u.)       :      0.88980
Magnitude (Debye)      :      2.26170

CHEMICAL SHIELDING SUMMARY (ppm)
--------------------------------

  Nucleus  Element    Isotropic     Anisotropy
  -------  -------  ------------   ------------
      1       N         -188.531       -515.406
      0       C           60.419        311.606
      2       H           24.872         12.515

VIBRATIONAL FREQUENCIES
-----------------------

Scaling factor for frequencies =  1.000000000 (already applied!)

   0:         0.00 cm**-1
   1:         0.00 cm**-1
   2:         0.00 cm**-1
   3:         0.00 cm**-1
   4:         0.00 cm**-1
   5:         0.00 cm**-1
   6:      -170.95 cm**-1 ***imaginary mode***
   7:      2195.80 cm**-1
   8:      3509.39 cm**-1

IR SPECTRUM
-----------

 Mode   freq       eps      Int      T**2         TX        TY        TZ
       cm**-1   L/(mol*cm) km/mol    a.u.
----------------------------------------------------------------------------
  7:   2195.80   0.001153    5.83  0.000164  ( 0.005009 -0.000249  0.011777)
  8:   3509.39   0.017747   89.68  0.001578  (-0.039552  0.001981  0.003135)

--------------------------
THERMOCHEMISTRY AT 298.15K
--------------------------

Temperature         ... 298.15 K
Pressure            ... 1.00 atm
Total Mass          ... 27.03 AMU

Throughout the following assumptions are being made:
  (1) The electronic state is orbitally nondegenerate
  (2) There are no thermally accessible electronically excited states
  (3) Hindered rotations indicated by low frequency modes are not
      treated as such but are treated as vibrations and this may
      cause some error
  (4) All equations used are the standard statistical mechanics
      equations for an ideal gas
  (5) All vibrations are strictly harmonic

freq.    2195.80  E(vib)   ...       0.00
freq.    3509.39  E(vib)   ...       0.00

------------
INNER ENERGY
------------

The inner energy is: U= E(el) + E(ZPE) + E(vib) + E(rot) + E(trans)
    E(el)   - is the total energy from the electronic structure calculation
              = E(kin-el) + E(nuc-el) + E(el-el) + E(nuc-nuc)
    E(ZPE)  - the the zero temperature vibrational energy from the frequency calculation
    E(vib)  - the the finite temperature correction to E(ZPE) due to population
              of excited vibrational states
    E(rot)  - is the rotational thermal energy
    E(trans)- is the translational thermal energy

Summary of contributions to the inner energy U:
Electronic energy                ...    -93.30999718 Eh
Zero point energy                ...      0.01299738 Eh       8.16 kcal/mol
Thermal vibrational correction   ...      0.00000025 Eh       0.00 kcal/mol
Thermal rotational correction    ...      0.00141627 Eh       0.89 kcal/mol
Thermal translational correction ...      0.00141627 Eh       0.89 kcal/mol
-----------------------------------------------------------------------
Total thermal energy                    -93.29416700 Eh

Summary of corrections to the electronic energy:
(perhaps to be used in another calculation)
Total thermal correction                  0.00283279 Eh       1.78 kcal/mol
Non-thermal (ZPE) correction              0.01299738 Eh       8.16 kcal/mol
-----------------------------------------------------------------------
Total correction                          0.01583017 Eh       9.93 kcal/mol

--------
ENTHALPY
--------

The enthalpy is H = U + kB*T
                kB is Boltzmann's constant
Total free energy                 ...    -93.29416700 Eh
Thermal Enthalpy correction       ...      0.00094421 Eh       0.59 kcal/mol
-----------------------------------------------------------------------
Total Enthalpy                    ...    -93.29322280 Eh

Note: Rotational entropy computed according to Herzberg
Infrared and Raman Spectra, Chapter V,1, Van Nostrand Reinhold, 1945
Point Group:  Cs, Symmetry Number:   1
Rotational constants in cm-1:    23.888196     1.677224     1.567189

Vibrational entropy computed according to the QRRHO of S. Grimme
Chem.Eur.J. 2012 18 9955

-------
ENTROPY
-------

The entropy contributions are T*S = T*(S(el)+S(vib)+S(rot)+S(trans))
     S(el)   - electronic entropy
     S(vib)  - vibrational entropy
     S(rot)  - rotational entropy
     S(trans)- translational entropy
The entropies will be listed as multiplied by the temperature to get
units of energy

Electronic entropy                ...      0.00000000 Eh      0.00 kcal/mol
Vibrational entropy               ...      0.00000027 Eh      0.00 kcal/mol
Rotational entropy                ...      0.00755645 Eh      4.74 kcal/mol
Translational entropy             ...      0.01701823 Eh     10.68 kcal/mol
-----------------------------------------------------------------------
Final entropy term                ...      0.02457495 Eh     15.42 kcal/mol

In case the symmetry of your molecule has not been determined correctly
or in case you have a reason to use a different symmetry number we print
out the resulting rotational entropy values for sn=1,12 :
 --------------------------------------------------------
|  sn= 1 | S(rot)=       0.00755645 Eh      4.74 kcal/mol|
|  sn= 2 | S(rot)=       0.00690199 Eh      4.33 kcal/mol|
|  sn= 3 | S(rot)=       0.00651916 Eh      4.09 kcal/mol|
|  sn= 4 | S(rot)=       0.00624753 Eh      3.92 kcal/mol|
|  sn= 5 | S(rot)=       0.00603685 Eh      3.79 kcal/mol|
|  sn= 6 | S(rot)=       0.00586470 Eh      3.68 kcal/mol|
|  sn= 7 | S(rot)=       0.00571915 Eh      3.59 kcal/mol|
|  sn= 8 | S(rot)=       0.00559308 Eh      3.51 kcal/mol|
|  sn= 9 | S(rot)=       0.00548187 Eh      3.44 kcal/mol|
|  sn=10 | S(rot)=       0.00538239 Eh      3.38 kcal/mol|
|  sn=11 | S(rot)=       0.00529240 Eh      3.32 kcal/mol|
|  sn=12 | S(rot)=       0.00521024 Eh      3.27 kcal/mol|
 --------------------------------------------------------

-------------------
GIBBS FREE ENERGY
-------------------

The Gibbs free energy is G = H - T*S

Total enthalpy                    ...    -93.29322280 Eh
Total entropy correction          ...     -0.02457495 Eh    -15.42 kcal/mol
-----------------------------------------------------------------------
Final Gibbs free energy         ...    -93.31779775 Eh

For completeness - the Gibbs free energy minus the electronic energy
G-E(el)                           ...     -0.00780057 Eh     -4.89 kcal/mol

                             ****ORCA TERMINATED NORMALLY****
TOTAL RUN TIME: 0 days 0 hours 1 minutes 7 seconds 4 msec
