                         Program Version 5.0.3 -  RELEASE  -
|  1> ! PAL5 VWN
|  2> %method
|  3>         method DFT
|  4>         runtyp OPT
|  5> end
|  6>
|  7> %scf
|  8>        MaxIter 500
|  9> end
| 10> %geom
| 11>        MaxIter 500
| 12>        Convergence loose
| 13> end
| 14>
| 15> %basis
| 16>         basis "def2-SVP"
| 17> end
| 18> ! NumFreq
| 19> %elprop
| 20>         Polar 1
| 21> end
| 22> %output
| 23>         XYZFile true
| 24> end
| 25> %coords
| 26>         CTyp xyz
| 27>         Charge 0
| 28>         Mult 1
| 29>         Units Angs
| 30>         coords
| 31> 	Mn    -1.671960    2.457770   -0.000000
| 32> 	O     -3.066310    1.598560   -0.000001
| 33> 	O     -0.110402    3.419370    0.000000
| 34> 	H      0.603334    2.732930    0.000000
| 35>         end
| 36> endd                         ****END OF INPUT****
 Total Charge           Charge          ....    0
 Multiplicity           Mult            ....    1
 Number of Electrons    NEL             ....   42
FINAL SINGLE POINT ENERGY     -1298.276580802716
FINAL SINGLE POINT ENERGY     -1298.281792137408
FINAL SINGLE POINT ENERGY     -1298.293357914410
FINAL SINGLE POINT ENERGY     -1298.294287461513
FINAL SINGLE POINT ENERGY     -1298.298108422739
FINAL SINGLE POINT ENERGY     -1298.300370879204
FINAL SINGLE POINT ENERGY     -1298.301311845140
FINAL SINGLE POINT ENERGY     -1298.301943499583
FINAL SINGLE POINT ENERGY     -1298.302093846842
FINAL SINGLE POINT ENERGY     -1298.302473184265
FINAL SINGLE POINT ENERGY     -1298.322191645304
FINAL SINGLE POINT ENERGY     -1298.322191121254
FINAL SINGLE POINT ENERGY     -1298.322190587468
FINAL SINGLE POINT ENERGY     -1298.322190059368
FINAL SINGLE POINT ENERGY     -1298.322216639369
FINAL SINGLE POINT ENERGY     -1298.322264454106
FINAL SINGLE POINT ENERGY     -1298.322322099447
FINAL SINGLE POINT ENERGY     -1298.322346212542
FINAL SINGLE POINT ENERGY     -1298.322352273173
                    ***********************HURRAY********************

CARTESIAN COORDINATES (ANGSTROEM)
---------------------------------
  Mn    -1.513355    1.743508   -0.143720
  O     -2.836080    2.416053    0.203626
  O     -0.107992    2.633505   -0.273720
  H      0.212089    3.415565    0.213814

 Multiplicity           Mult            ....    1
 Number of Electrons    NEL             ....   42
 Basis Dimension        Dim             ....   64

ORBITAL ENERGIES
----------------

  NO   OCC          E(Eh)            E(eV)
   0   2.0000    -233.617156     -6357.0460
   1   2.0000     -26.824083      -729.9204
   2   2.0000     -23.051488      -627.2629
   3   2.0000     -23.033919      -626.7848
   4   2.0000     -23.020225      -626.4122
   5   2.0000     -18.642386      -507.2851
   6   2.0000     -18.642031      -507.2755
   7   2.0000      -3.008570       -81.8673
   8   2.0000      -1.971114       -53.6367
   9   2.0000      -1.927472       -52.4492
  10   2.0000      -1.884540       -51.2809
  11   2.0000      -0.889206       -24.1965
  12   2.0000      -0.819085       -22.2884
  13   2.0000      -0.480532       -13.0759
  14   2.0000      -0.366634        -9.9766
  15   2.0000      -0.342770        -9.3272
  16   2.0000      -0.336884        -9.1671
  17   2.0000      -0.323155        -8.7935
  18   2.0000      -0.306859        -8.3500
  19   2.0000      -0.157975        -4.2987
  20   2.0000      -0.156058        -4.2466
  21   0.0000      -0.169395        -4.6095
  22   0.0000      -0.135024        -3.6742
  23   0.0000      -0.103429        -2.8145
  24   0.0000      -0.045059        -1.2261
  25   0.0000       0.040549         1.1034

MULLIKEN ATOMIC CHARGES
-----------------------
   0 Mn:    0.471130
   1 O :   -0.318765
   2 O :   -0.398567
   3 H :    0.246203
Sum of atomic charges:    0.0000000

LOEWDIN ATOMIC CHARGES
----------------------
   0 Mn:    0.113378
   1 O :   -0.102962
   2 O :   -0.125686
   3 H :    0.115270

  Mayer bond orders larger than 0.100000
B(  0-Mn,  1-O ) :   2.3080 B(  0-Mn,  2-O ) :   1.2601 B(  1-O ,  2-O ) :   0.1331
B(  2-O ,  3-H ) :   0.9277

FINAL SINGLE POINT ENERGY     -1298.322355155807

DIPOLE MOMENT
-------------
                                X             Y             Z
Electronic contribution:     -1.06112      -2.76959      -0.34326
Nuclear contribution   :      1.74713       2.69998       0.49802
                        -----------------------------------------
Total Dipole Moment    :      0.68601      -0.06961       0.15476
                        -----------------------------------------
Magnitude (a.u.)       :      0.70668
Magnitude (Debye)      :      1.79625

VIBRATIONAL FREQUENCIES
-----------------------

Scaling factor for frequencies =  1.000000000 (already applied!)

   0:         0.00 cm**-1
   1:         0.00 cm**-1
   2:         0.00 cm**-1
   3:         0.00 cm**-1
   4:         0.00 cm**-1
   5:         0.00 cm**-1
   6:       177.91 cm**-1
   7:       270.30 cm**-1
   8:       528.68 cm**-1
   9:       845.37 cm**-1
  10:      1107.05 cm**-1
  11:      3754.89 cm**-1

IR SPECTRUM
-----------

 Mode   freq       eps      Int      T**2         TX        TY        TZ
       cm**-1   L/(mol*cm) km/mol    a.u.
----------------------------------------------------------------------------
  6:    177.91   0.020385  103.02  0.035757  ( 0.056429  0.129203 -0.126012)
  7:    270.30   0.014161   71.56  0.016349  (-0.034173  0.085153 -0.089054)
  8:    528.68   0.024321  122.91  0.014356  ( 0.111277 -0.013110 -0.042445)
  9:    845.37   0.011918   60.23  0.004400  ( 0.048090  0.045319  0.005756)
 10:   1107.05   0.023807  120.31  0.006711  ( 0.078519 -0.016281 -0.016755)
 11:   3754.89   0.048105  243.10  0.003998  ( 0.038446  0.046840  0.018052)

--------------------------
THERMOCHEMISTRY AT 298.15K
--------------------------

Temperature         ... 298.15 K
Pressure            ... 1.00 atm
Total Mass          ... 87.95 AMU

Throughout the following assumptions are being made:
  (1) The electronic state is orbitally nondegenerate
  (2) There are no thermally accessible electronically excited states
  (3) Hindered rotations indicated by low frequency modes are not
      treated as such but are treated as vibrations and this may
      cause some error
  (4) All equations used are the standard statistical mechanics
      equations for an ideal gas
  (5) All vibrations are strictly harmonic

freq.     177.91  E(vib)   ...       0.37
freq.     270.30  E(vib)   ...       0.29
freq.     528.68  E(vib)   ...       0.13
freq.     845.37  E(vib)   ...       0.04
freq.    1107.05  E(vib)   ...       0.02
freq.    3754.89  E(vib)   ...       0.00

------------
INNER ENERGY
------------

The inner energy is: U= E(el) + E(ZPE) + E(vib) + E(rot) + E(trans)
    E(el)   - is the total energy from the electronic structure calculation
              = E(kin-el) + E(nuc-el) + E(el-el) + E(nuc-nuc)
    E(ZPE)  - the the zero temperature vibrational energy from the frequency calculation
    E(vib)  - the the finite temperature correction to E(ZPE) due to population
              of excited vibrational states
    E(rot)  - is the rotational thermal energy
    E(trans)- is the translational thermal energy

Summary of contributions to the inner energy U:
Electronic energy                ...  -1298.32235515 Eh
Zero point energy                ...      0.01522772 Eh       9.56 kcal/mol
Thermal vibrational correction   ...      0.00134913 Eh       0.85 kcal/mol
Thermal rotational correction    ...      0.00141627 Eh       0.89 kcal/mol
Thermal translational correction ...      0.00141627 Eh       0.89 kcal/mol
-----------------------------------------------------------------------
Total thermal energy                  -1298.30294576 Eh

Summary of corrections to the electronic energy:
(perhaps to be used in another calculation)
Total thermal correction                  0.00418167 Eh       2.62 kcal/mol
Non-thermal (ZPE) correction              0.01522772 Eh       9.56 kcal/mol
-----------------------------------------------------------------------
Total correction                          0.01940939 Eh      12.18 kcal/mol

--------
ENTHALPY
--------

The enthalpy is H = U + kB*T
                kB is Boltzmann's constant
Total free energy                 ...  -1298.30294576 Eh
Thermal Enthalpy correction       ...      0.00094421 Eh       0.59 kcal/mol
-----------------------------------------------------------------------
Total Enthalpy                    ...  -1298.30200155 Eh

Note: Only C1 symmetry has been detected, increase convergence thresholds
      if your molecule has a higher symmetry. Symmetry factor of 1.0 is
      used for the rotational entropy correction.

Note: Rotational entropy computed according to Herzberg
Infrared and Raman Spectra, Chapter V,1, Van Nostrand Reinhold, 1945
Point Group:  C1, Symmetry Number:   1
Rotational constants in cm-1:     1.191984     0.258223     0.213037

Vibrational entropy computed according to the QRRHO of S. Grimme
Chem.Eur.J. 2012 18 9955

-------
ENTROPY
-------

The entropy contributions are T*S = T*(S(el)+S(vib)+S(rot)+S(trans))
     S(el)   - electronic entropy
     S(vib)  - vibrational entropy
     S(rot)  - rotational entropy
     S(trans)- translational entropy
The entropies will be listed as multiplied by the temperature to get
units of energy

Electronic entropy                ...      0.00000000 Eh      0.00 kcal/mol
Vibrational entropy               ...      0.00226571 Eh      1.42 kcal/mol
Rotational entropy                ...      0.01079707 Eh      6.78 kcal/mol
Translational entropy             ...      0.01868933 Eh     11.73 kcal/mol
-----------------------------------------------------------------------
Final entropy term                ...      0.03175210 Eh     19.92 kcal/mol

In case the symmetry of your molecule has not been determined correctly
or in case you have a reason to use a different symmetry number we print
out the resulting rotational entropy values for sn=1,12 :
 --------------------------------------------------------
|  sn= 1 | S(rot)=       0.01079707 Eh      6.78 kcal/mol|
|  sn= 2 | S(rot)=       0.01014261 Eh      6.36 kcal/mol|
|  sn= 3 | S(rot)=       0.00975978 Eh      6.12 kcal/mol|
|  sn= 4 | S(rot)=       0.00948816 Eh      5.95 kcal/mol|
|  sn= 5 | S(rot)=       0.00927747 Eh      5.82 kcal/mol|
|  sn= 6 | S(rot)=       0.00910532 Eh      5.71 kcal/mol|
|  sn= 7 | S(rot)=       0.00895978 Eh      5.62 kcal/mol|
|  sn= 8 | S(rot)=       0.00883370 Eh      5.54 kcal/mol|
|  sn= 9 | S(rot)=       0.00872249 Eh      5.47 kcal/mol|
|  sn=10 | S(rot)=       0.00862301 Eh      5.41 kcal/mol|
|  sn=11 | S(rot)=       0.00853302 Eh      5.35 kcal/mol|
|  sn=12 | S(rot)=       0.00845087 Eh      5.30 kcal/mol|
 --------------------------------------------------------

-------------------
GIBBS FREE ENERGY
-------------------

The Gibbs free energy is G = H - T*S

Total enthalpy                    ...  -1298.30200155 Eh
Total entropy correction          ...     -0.03175210 Eh    -19.92 kcal/mol
-----------------------------------------------------------------------
Final Gibbs free energy         ...  -1298.33375366 Eh

For completeness - the Gibbs free energy minus the electronic energy
G-E(el)                           ...     -0.01139851 Eh     -7.15 kcal/mol

                             ****ORCA TERMINATED NORMALLY****
TOTAL RUN TIME: 0 days 0 hours 19 minutes 49 seconds 220 msec
