                         Program Version 4.2.1 -  RELEASE  -
|  1> #end
|  2>
|  3> %method
|  4> 	method HF
|  5> 	runtyp OPT
|  6> end
|  7> %basis
|  8> 	basis "3-21G"
|  9> end
| 10> ! NumFreq
| 11> %elprop
| 12> 	Polar 1
| 13> end
| 14> %output
| 15> 	XYZFile true
| 16> 	Print [ P_AtPopMO_L ] 1
| 17> 	Print [ P_OrbPopMO_L ] 1
| 18> end
| 19> %coords
| 20> 	CTyp xyz
| 21> 	Charge 0
| 22> 	Mult 1
| 23> 	Units Angs
| 24> 	coords
| 25> 	C 0.0 0.0 0.0
| 26> 	O 0.0 0.0 2.5
| 27> 	end
| 28> end
| 29>
| 30>
| 31>                          ****END OF INPUT****
 Total Charge           Charge          ....    0
 Multiplicity           Mult            ....    1
 Number of Electrons    NEL             ....   14
FINAL SINGLE POINT ENERGY      -111.681019277894
FINAL SINGLE POINT ENERGY      -111.689916963282
FINAL SINGLE POINT ENERGY      -111.702915047164
FINAL SINGLE POINT ENERGY      -111.723193333838
FINAL SINGLE POINT ENERGY      -111.758224057074
FINAL SINGLE POINT ENERGY      -111.819697426233
FINAL SINGLE POINT ENERGY      -111.904502086341
FINAL SINGLE POINT ENERGY      -111.996046968367
FINAL SINGLE POINT ENERGY      -112.073002891174
FINAL SINGLE POINT ENERGY      -112.083847599495
FINAL SINGLE POINT ENERGY      -112.092440213486
FINAL SINGLE POINT ENERGY      -112.093268599766
FINAL SINGLE POINT ENERGY      -112.093298845075
FINAL SINGLE POINT ENERGY      -112.093298981446
                    ***********************HURRAY********************

CARTESIAN COORDINATES (ANGSTROEM)
---------------------------------
  C      0.000000    0.000000    0.685525
  O      0.000000    0.000000    1.814475

 Multiplicity           Mult            ....    1
 Number of Electrons    NEL             ....   14
 Basis Dimension        Dim             ....   18

ORBITAL ENERGIES
----------------

  NO   OCC          E(Eh)            E(eV)
   0   2.0000     -20.578958      -559.9819
   1   2.0000     -11.317714      -307.9706
   2   2.0000      -1.547653       -42.1138
   3   2.0000      -0.785351       -21.3705
   4   2.0000      -0.634769       -17.2729
   5   2.0000      -0.634769       -17.2729
   6   2.0000      -0.543243       -14.7824
   7   0.0000       0.161712         4.4004
   8   0.0000       0.161712         4.4004
   9   0.0000       0.492231        13.3943
  10   0.0000       0.926326        25.2066
  11   0.0000       0.926326        25.2066

MULLIKEN ATOMIC CHARGES
-----------------------
   0 C :    0.437342
   1 O :   -0.437342
Sum of atomic charges:   -0.0000000

LOEWDIN ATOMIC CHARGES
----------------------
   0 C :    0.072455
   1 O :   -0.072455

  Mayer bond orders larger than 0.100000
B(  0-C ,  1-O ) :   2.2197

FINAL SINGLE POINT ENERGY      -112.093298981496

DIPOLE MOMENT
-------------
                                X             Y             Z
Electronic contribution:     -0.00000       0.00000      -0.16344
Nuclear contribution   :      0.00000       0.00000       0.00716
                        -----------------------------------------
Total Dipole Moment    :     -0.00000       0.00000      -0.15629
                        -----------------------------------------
Magnitude (a.u.)       :      0.15629
Magnitude (Debye)      :      0.39725

VIBRATIONAL FREQUENCIES
-----------------------

Scaling factor for frequencies =  1.000000000 (already applied!)

   0:         0.00 cm**-1
   1:         0.00 cm**-1
   2:         0.00 cm**-1
   3:         0.00 cm**-1
   4:         0.00 cm**-1
   5:      2314.41 cm**-1

IR SPECTRUM
-----------

 Mode    freq (cm**-1)   T**2         TX         TY         TZ
-------------------------------------------------------------------
   5:      2314.41  104.266810  ( -0.000000  -0.000000  10.211112)

--------------------------
THERMOCHEMISTRY AT 298.15K
--------------------------

Temperature         ... 298.15 K
Pressure            ... 1.00 atm
Total Mass          ... 28.01 AMU
The molecule is recognized as being linear

Throughout the following assumptions are being made:
  (1) The electronic state is orbitally nondegenerate
  (2) There are no thermally accessible electronically excited states
  (3) Hindered rotations indicated by low frequency modes are not
      treated as such but are treated as vibrations and this may
      cause some error
  (4) All equations used are the standard statistical mechanics
      equations for an ideal gas
  (5) All vibrations are strictly harmonic

freq.    2314.41  E(vib)   ...       0.00

------------
INNER ENERGY
------------

The inner energy is: U= E(el) + E(ZPE) + E(vib) + E(rot) + E(trans)
    E(el)   - is the total energy from the electronic structure calculation
              = E(kin-el) + E(nuc-el) + E(el-el) + E(nuc-nuc)
    E(ZPE)  - the the zero temperature vibrational energy from the frequency calculation
    E(vib)  - the the finite temperature correction to E(ZPE) due to population
              of excited vibrational states
    E(rot)  - is the rotational thermal energy
    E(trans)- is the translational thermal energy

Summary of contributions to the inner energy U:
Electronic energy                ...   -112.09329898 Eh
Zero point energy                ...      0.00527261 Eh       3.31 kcal/mol
Thermal vibrational correction   ...      0.00000015 Eh       0.00 kcal/mol
Thermal rotational correction    ...      0.00094418 Eh       0.59 kcal/mol
Thermal translational correction ...      0.00141627 Eh       0.89 kcal/mol
-----------------------------------------------------------------------
Total thermal energy                   -112.08566577 Eh

Summary of corrections to the electronic energy:
(perhaps to be used in another calculation)
Total thermal correction                  0.00236060 Eh       1.48 kcal/mol
Non-thermal (ZPE) correction              0.00527261 Eh       3.31 kcal/mol
-----------------------------------------------------------------------
Total correction                          0.00763321 Eh       4.79 kcal/mol

--------
ENTHALPY
--------

The enthalpy is H = U + kB*T
                kB is Boltzmann's constant
Total free energy                 ...   -112.08566577 Eh
Thermal Enthalpy correction       ...      0.00094421 Eh       0.59 kcal/mol
-----------------------------------------------------------------------
Total Enthalpy                    ...   -112.08472156 Eh

Note: Rotational entropy computed according to Herzberg
Infrared and Raman Spectra, Chapter V,1, Van Nostrand Reinhold, 1945
Point Group:  Cinfv, Symmetry Number:   1
Rotational constants in cm-1:     0.000000     1.927920     1.927920

Vibrational entropy computed according to the QRRHO of S. Grimme
Chem.Eur.J. 2012 18 9955

-------
ENTROPY
-------

The entropy contributions are T*S = T*(S(el)+S(vib)+S(rot)+S(trans))
     S(el)   - electronic entropy
     S(vib)  - vibrational entropy
     S(rot)  - rotational entropy
     S(trans)- translational entropy
The entropies will be listed as mutliplied by the temperature to get
units of energy

Electronic entropy                ...      0.00000000 Eh      0.00 kcal/mol
Vibrational entropy               ...      0.00000016 Eh      0.00 kcal/mol
Rotational entropy                ...      0.00536046 Eh      3.36 kcal/mol
Translational entropy             ...      0.01706888 Eh     10.71 kcal/mol
-----------------------------------------------------------------------
Final entropy term                ...      0.02242951 Eh     14.07 kcal/mol

In case the symmetry of your molecule has not been determined correctly
or in case you have a reason to use a different symmetry number we print
out the resulting rotational entropy values for sn=1,12 :
 --------------------------------------------------------
|  sn= 1 | S(rot)=             -inf Eh      -inf kcal/mol|
|  sn= 2 | S(rot)=             -inf Eh      -inf kcal/mol|
|  sn= 3 | S(rot)=             -inf Eh      -inf kcal/mol|
|  sn= 4 | S(rot)=             -inf Eh      -inf kcal/mol|
|  sn= 5 | S(rot)=             -inf Eh      -inf kcal/mol|
|  sn= 6 | S(rot)=             -inf Eh      -inf kcal/mol|
|  sn= 7 | S(rot)=             -inf Eh      -inf kcal/mol|
|  sn= 8 | S(rot)=             -inf Eh      -inf kcal/mol|
|  sn= 9 | S(rot)=             -inf Eh      -inf kcal/mol|
|  sn=10 | S(rot)=             -inf Eh      -inf kcal/mol|
|  sn=11 | S(rot)=             -inf Eh      -inf kcal/mol|
|  sn=12 | S(rot)=             -inf Eh      -inf kcal/mol|
 --------------------------------------------------------

-------------------
GIBBS FREE ENERGY
-------------------

The Gibbs free energy is G = H - T*S

Total enthalpy                    ...   -112.08472156 Eh
Total entropy correction          ...     -0.02242951 Eh    -14.07 kcal/mol
-----------------------------------------------------------------------
Final Gibbs free energy         ...   -112.10715107 Eh

For completeness - the Gibbs free energy minus the electronic energy
G-E(el)                           ...     -0.01385209 Eh     -8.69 kcal/mol

                             ****ORCA TERMINATED NORMALLY****
TOTAL RUN TIME: 0 days 0 hours 1 minutes 9 seconds 255 msec
