                         Program Version 4.2.1 -  RELEASE  -
|  1> ! PAL4 VWN
|  2>
|  3> %method
|  4>         method DFT
|  5>         runtyp OPT
|  6> end
|  7>
|  8> %basis
|  9>         basis "def2-TZVP"
| 10> end
| 11> ! NumFreq
| 12> %output
| 13>         XYZFile true
| 14> end
| 15> %coords
| 16>         CTyp xyz
| 17>         Charge 1
| 18>         Mult 1
| 19>         Units Angs
| 20>         coords
| 21>         P       -1.3964703605      0.5346218729     -0.0392481365
| 22> 	H        0.1725606238      0.5123737189     -0.0821591799
| 23> 	H       -1.9650463708      1.2081038033      1.2597276053
| 24>         end
| 25> end
| 26>
| 27>                          ****END OF INPUT****
 Total Charge           Charge          ....    1
 Multiplicity           Mult            ....    1
 Number of Electrons    NEL             ....   16
FINAL SINGLE POINT ENERGY      -340.836635879865
FINAL SINGLE POINT ENERGY      -340.851233370778
FINAL SINGLE POINT ENERGY      -340.855832679461
FINAL SINGLE POINT ENERGY      -340.856263855026
FINAL SINGLE POINT ENERGY      -340.856281608592
FINAL SINGLE POINT ENERGY      -340.856282274478
                    ***********************HURRAY********************

CARTESIAN COORDINATES (ANGSTROEM)
---------------------------------
  P     -1.455061    0.496583   -0.112615
  H     -0.028011    0.606239    0.098883
  H     -1.705884    1.152277    1.152052

 Multiplicity           Mult            ....    1
 Number of Electrons    NEL             ....   16
 Basis Dimension        Dim             ....   49

ORBITAL ENERGIES
----------------

  NO   OCC          E(Eh)            E(eV)
   0   2.0000     -76.379222     -2078.3843
   1   2.0000      -6.653790      -181.0588
   2   2.0000      -4.909366      -133.5907
   3   2.0000      -4.898827      -133.3039
   4   2.0000      -4.897097      -133.2568
   5   2.0000      -0.888452       -24.1760
   6   2.0000      -0.641684       -17.4611
   7   2.0000      -0.578112       -15.7312
   8   0.0000      -0.514894       -14.0110
   9   0.0000      -0.288135        -7.8406
  10   0.0000      -0.245438        -6.6787
  11   0.0000      -0.103326        -2.8116
  12   0.0000      -0.082006        -2.2315

MULLIKEN ATOMIC CHARGES
-----------------------
   0 P :    0.540510
   1 H :    0.229636
   2 H :    0.229854
Sum of atomic charges:    1.0000000

LOEWDIN ATOMIC CHARGES
----------------------
   0 P :    0.831021
   1 H :    0.084316
   2 H :    0.084662

  Mayer bond orders larger than 0.100000
B(  0-P ,  1-H ) :   0.9217 B(  0-P ,  2-H ) :   0.9218

FINAL SINGLE POINT ENERGY      -340.856282277109

DIPOLE MOMENT
-------------
                                X             Y             Z
Electronic contribution:     -0.79193      -0.51494      -0.99253
Nuclear contribution   :      1.06819       0.69505       1.34057
                        -----------------------------------------
Total Dipole Moment    :      0.27625       0.18011       0.34804
                        -----------------------------------------
Magnitude (a.u.)       :      0.47946
Magnitude (Debye)      :      1.21870

VIBRATIONAL FREQUENCIES
-----------------------

Scaling factor for frequencies =  1.000000000 (already applied!)

   0:         0.00 cm**-1
   1:         0.00 cm**-1
   2:         0.00 cm**-1
   3:         0.00 cm**-1
   4:         0.00 cm**-1
   5:         0.00 cm**-1
   6:      1064.20 cm**-1
   7:      2277.70 cm**-1
   8:      2289.99 cm**-1

IR SPECTRUM
-----------

 Mode    freq (cm**-1)   T**2         TX         TY         TZ
-------------------------------------------------------------------
   6:      1064.20    1.424770  (  0.917219   0.419599   0.638292)
   7:      2277.70    4.366233  (  1.153983   0.876891   1.505197)
   8:      2289.99    6.626676  (  2.079648  -0.651225  -1.370273)

--------------------------
THERMOCHEMISTRY AT 298.15K
--------------------------

Temperature         ... 298.15 K
Pressure            ... 1.00 atm
Total Mass          ... 32.99 AMU

Throughout the following assumptions are being made:
  (1) The electronic state is orbitally nondegenerate
  (2) There are no thermally accessible electronically excited states
  (3) Hindered rotations indicated by low frequency modes are not
      treated as such but are treated as vibrations and this may
      cause some error
  (4) All equations used are the standard statistical mechanics
      equations for an ideal gas
  (5) All vibrations are strictly harmonic

freq.    1064.20  E(vib)   ...       0.02
freq.    2277.70  E(vib)   ...       0.00
freq.    2289.99  E(vib)   ...       0.00

------------
INNER ENERGY
------------

The inner energy is: U= E(el) + E(ZPE) + E(vib) + E(rot) + E(trans)
    E(el)   - is the total energy from the electronic structure calculation
              = E(kin-el) + E(nuc-el) + E(el-el) + E(nuc-nuc)
    E(ZPE)  - the the zero temperature vibrational energy from the frequency calculation
    E(vib)  - the the finite temperature correction to E(ZPE) due to population
              of excited vibrational states
    E(rot)  - is the rotational thermal energy
    E(trans)- is the translational thermal energy

Summary of contributions to the inner energy U:
Electronic energy                ...   -340.85628228 Eh
Zero point energy                ...      0.01283039 Eh       8.05 kcal/mol
Thermal vibrational correction   ...      0.00002905 Eh       0.02 kcal/mol
Thermal rotational correction    ...      0.00141627 Eh       0.89 kcal/mol
Thermal translational correction ...      0.00141627 Eh       0.89 kcal/mol
-----------------------------------------------------------------------
Total thermal energy                   -340.84059030 Eh

Summary of corrections to the electronic energy:
(perhaps to be used in another calculation)
Total thermal correction                  0.00286159 Eh       1.80 kcal/mol
Non-thermal (ZPE) correction              0.01283039 Eh       8.05 kcal/mol
-----------------------------------------------------------------------
Total correction                          0.01569198 Eh       9.85 kcal/mol

--------
ENTHALPY
--------

The enthalpy is H = U + kB*T
                kB is Boltzmann's constant
Total free energy                 ...   -340.84059030 Eh
Thermal Enthalpy correction       ...      0.00094421 Eh       0.59 kcal/mol
-----------------------------------------------------------------------
Total Enthalpy                    ...   -340.83964609 Eh

Note: Rotational entropy computed according to Herzberg
Infrared and Raman Spectra, Chapter V,1, Van Nostrand Reinhold, 1945
Point Group:  Cs, Symmetry Number:   1
Rotational constants in cm-1:     8.587731     7.921151     4.120492

Vibrational entropy computed according to the QRRHO of S. Grimme
Chem.Eur.J. 2012 18 9955

-------
ENTROPY
-------

The entropy contributions are T*S = T*(S(el)+S(vib)+S(rot)+S(trans))
     S(el)   - electronic entropy
     S(vib)  - vibrational entropy
     S(rot)  - rotational entropy
     S(trans)- translational entropy
The entropies will be listed as mutliplied by the temperature to get
units of energy

Electronic entropy                ...      0.00000000 Eh      0.00 kcal/mol
Vibrational entropy               ...      0.00003466 Eh      0.02 kcal/mol
Rotational entropy                ...      0.00685018 Eh      4.30 kcal/mol
Translational entropy             ...      0.01730065 Eh     10.86 kcal/mol
-----------------------------------------------------------------------
Final entropy term                ...      0.02418549 Eh     15.18 kcal/mol

In case the symmetry of your molecule has not been determined correctly
or in case you have a reason to use a different symmetry number we print
out the resulting rotational entropy values for sn=1,12 :
 --------------------------------------------------------
|  sn= 1 | S(rot)=       0.00685018 Eh      4.30 kcal/mol|
|  sn= 2 | S(rot)=       0.00619573 Eh      3.89 kcal/mol|
|  sn= 3 | S(rot)=       0.00581289 Eh      3.65 kcal/mol|
|  sn= 4 | S(rot)=       0.00554127 Eh      3.48 kcal/mol|
|  sn= 5 | S(rot)=       0.00533058 Eh      3.34 kcal/mol|
|  sn= 6 | S(rot)=       0.00515844 Eh      3.24 kcal/mol|
|  sn= 7 | S(rot)=       0.00501289 Eh      3.15 kcal/mol|
|  sn= 8 | S(rot)=       0.00488681 Eh      3.07 kcal/mol|
|  sn= 9 | S(rot)=       0.00477560 Eh      3.00 kcal/mol|
|  sn=10 | S(rot)=       0.00467613 Eh      2.93 kcal/mol|
|  sn=11 | S(rot)=       0.00458614 Eh      2.88 kcal/mol|
|  sn=12 | S(rot)=       0.00450398 Eh      2.83 kcal/mol|
 --------------------------------------------------------

-------------------
GIBBS FREE ENERGY
-------------------

The Gibbs free energy is G = H - T*S

Total enthalpy                    ...   -340.83964609 Eh
Total entropy correction          ...     -0.02418549 Eh    -15.18 kcal/mol
-----------------------------------------------------------------------
Final Gibbs free energy         ...   -340.86383158 Eh

For completeness - the Gibbs free energy minus the electronic energy
G-E(el)                           ...     -0.00754931 Eh     -4.74 kcal/mol

                             ****ORCA TERMINATED NORMALLY****
TOTAL RUN TIME: 0 days 0 hours 1 minutes 4 seconds 96 msec
