                         Program Version 4.2.1 -  RELEASE  -
|  1> ! VWN
|  2>
|  3> %method
|  4>         method DFT
|  5>         runtyp OPT
|  6> end
|  7>
|  8> %basis
|  9>         basis "def2-TZVP"
| 10> end
| 11> ! NumFreq
| 12> %output
| 13>         XYZFile true
| 14> end
| 15> %coords
| 16>         CTyp xyz
| 17>         Charge 0
| 18>         Mult 2
| 19>         Units Angs
| 20>         coords
| 21>         P       -1.3964703605      0.5346218729     -0.0392481365
| 22> 	H        0.1725606238      0.5123737189     -0.0821591799
| 23> 	H       -1.9650463708      1.2081038033      1.2597276053
| 24>         end
| 25> end
| 26>
| 27>                          ****END OF INPUT****
 Total Charge           Charge          ....    0
 Multiplicity           Mult            ....    2
 Number of Electrons    NEL             ....   17
FINAL SINGLE POINT ENERGY      -341.200969696814
FINAL SINGLE POINT ENERGY      -341.217148374895
FINAL SINGLE POINT ENERGY      -341.221985862070
FINAL SINGLE POINT ENERGY      -341.222524417396
FINAL SINGLE POINT ENERGY      -341.222550156350
FINAL SINGLE POINT ENERGY      -341.222551045352
                    ***********************HURRAY********************

CARTESIAN COORDINATES (ANGSTROEM)
---------------------------------
  P     -1.452913    0.498119   -0.109653
  H     -0.036321    0.607852    0.101994
  H     -1.699723    1.149129    1.145980

 Multiplicity           Mult            ....    2
 Number of Electrons    NEL             ....   17
 Basis Dimension        Dim             ....   49

ORBITAL ENERGIES
----------------
                 SPIN UP ORBITALS
  NO   OCC          E(Eh)            E(eV)
   0   1.0000     -76.000851     -2068.0883
   1   1.0000      -6.283500      -170.9827
   2   1.0000      -4.535269      -123.4109
   3   1.0000      -4.530181      -123.2725
   4   1.0000      -4.528560      -123.2284
   5   1.0000      -0.577708       -15.7202
   6   1.0000      -0.347575        -9.4580
   7   1.0000      -0.281023        -7.6470
   8   1.0000      -0.218230        -5.9383
   9   0.0000      -0.017103        -0.4654
  10   0.0000       0.002739         0.0745
  11   0.0000       0.146668         3.9910
  12   0.0000       0.153153         4.1675
  13   0.0000       0.197031         5.3615

                 SPIN DOWN ORBITALS
  NO   OCC          E(Eh)            E(eV)
   0   1.0000     -75.996541     -2067.9710
   1   1.0000      -6.278615      -170.8498
   2   1.0000      -4.526355      -123.1684
   3   1.0000      -4.524908      -123.1290
   4   1.0000      -4.524526      -123.1186
   5   1.0000      -0.555445       -15.1144
   6   1.0000      -0.339243        -9.2313
   7   1.0000      -0.266953        -7.2642
   8   0.0000      -0.169164        -4.6032
   9   0.0000      -0.009475        -0.2578
  10   0.0000       0.013278         0.3613
  11   0.0000       0.158745         4.3197
  12   0.0000       0.170298         4.6341

MULLIKEN ATOMIC CHARGES AND SPIN POPULATIONS
--------------------------------------------
   0 P :   -0.190160    1.054322
   1 H :    0.095830   -0.026655
   2 H :    0.094331   -0.027668
Sum of atomic charges         :   -0.0000000

LOEWDIN ATOMIC CHARGES AND SPIN POPULATIONS
-------------------------------------------
   0 P :   -0.012759    1.011644
   1 H :    0.006202   -0.005778
   2 H :    0.006557   -0.005866

  Mayer bond orders larger than 0.100000
B(  0-P ,  1-H ) :   0.9684 B(  0-P ,  2-H ) :   0.9689

FINAL SINGLE POINT ENERGY      -341.222550553722

DIPOLE MOMENT
-------------
                                X             Y             Z
Electronic contribution:     -0.91073      -0.59512      -1.14267
Nuclear contribution   :      1.06233       0.69087       1.33250
                        -----------------------------------------
Total Dipole Moment    :      0.15161       0.09574       0.18983
                        -----------------------------------------
Magnitude (a.u.)       :      0.26112
Magnitude (Debye)      :      0.66373

VIBRATIONAL FREQUENCIES
-----------------------

Scaling factor for frequencies =  1.000000000 (already applied!)

   0:         0.00 cm**-1
   1:         0.00 cm**-1
   2:         0.00 cm**-1
   3:         0.00 cm**-1
   4:         0.00 cm**-1
   5:         0.00 cm**-1
   6:      1060.34 cm**-1
   7:      2303.88 cm**-1
   8:      2320.12 cm**-1

IR SPECTRUM
-----------

 Mode    freq (cm**-1)   T**2         TX         TY         TZ
-------------------------------------------------------------------
   6:      1060.34    9.883487  ( -2.133305  -1.077878  -2.042223)
   7:      2303.88   39.063732  ( -3.972532  -1.962806  -4.407961)
   8:      2320.12   43.854705  (  5.207599  -1.607274  -3.761952)

--------------------------
THERMOCHEMISTRY AT 298.15K
--------------------------

Temperature         ... 298.15 K
Pressure            ... 1.00 atm
Total Mass          ... 32.99 AMU

Throughout the following assumptions are being made:
  (1) The electronic state is orbitally nondegenerate
      but the spin degeneracy is treated
  (2) There are no thermally accessible electronically excited states
  (3) Hindered rotations indicated by low frequency modes are not
      treated as such but are treated as vibrations and this may
      cause some error
  (4) All equations used are the standard statistical mechanics
      equations for an ideal gas
  (5) All vibrations are strictly harmonic

freq.    1060.34  E(vib)   ...       0.02
freq.    2303.88  E(vib)   ...       0.00
freq.    2320.12  E(vib)   ...       0.00

------------
INNER ENERGY
------------

The inner energy is: U= E(el) + E(ZPE) + E(vib) + E(rot) + E(trans)
    E(el)   - is the total energy from the electronic structure calculation
              = E(kin-el) + E(nuc-el) + E(el-el) + E(nuc-nuc)
    E(ZPE)  - the the zero temperature vibrational energy from the frequency calculation
    E(vib)  - the the finite temperature correction to E(ZPE) due to population
              of excited vibrational states
    E(rot)  - is the rotational thermal energy
    E(trans)- is the translational thermal energy

Summary of contributions to the inner energy U:
Electronic energy                ...   -341.22255126 Eh
Zero point energy                ...      0.01294990 Eh       8.13 kcal/mol
Thermal vibrational correction   ...      0.00002944 Eh       0.02 kcal/mol
Thermal rotational correction    ...      0.00141627 Eh       0.89 kcal/mol
Thermal translational correction ...      0.00141627 Eh       0.89 kcal/mol
-----------------------------------------------------------------------
Total thermal energy                   -341.20673938 Eh

Summary of corrections to the electronic energy:
(perhaps to be used in another calculation)
Total thermal correction                  0.00286198 Eh       1.80 kcal/mol
Non-thermal (ZPE) correction              0.01294990 Eh       8.13 kcal/mol
-----------------------------------------------------------------------
Total correction                          0.01581188 Eh       9.92 kcal/mol

--------
ENTHALPY
--------

The enthalpy is H = U + kB*T
                kB is Boltzmann's constant
Total free energy                 ...   -341.20673938 Eh
Thermal Enthalpy correction       ...      0.00094421 Eh       0.59 kcal/mol
-----------------------------------------------------------------------
Total Enthalpy                    ...   -341.20579517 Eh

Note: Rotational entropy computed according to Herzberg
Infrared and Raman Spectra, Chapter V,1, Van Nostrand Reinhold, 1945
Point Group:  Cs, Symmetry Number:   1
Rotational constants in cm-1:     8.688921     8.060060     4.181342

Vibrational entropy computed according to the QRRHO of S. Grimme
Chem.Eur.J. 2012 18 9955

-------
ENTROPY
-------

The entropy contributions are T*S = T*(S(el)+S(vib)+S(rot)+S(trans))
     S(el)   - electronic entropy
     S(vib)  - vibrational entropy
     S(rot)  - rotational entropy
     S(trans)- translational entropy
The entropies will be listed as mutliplied by the temperature to get
units of energy

Electronic entropy                ...      0.00065446 Eh      0.41 kcal/mol
Vibrational entropy               ...      0.00003516 Eh      0.02 kcal/mol
Rotational entropy                ...      0.00682952 Eh      4.29 kcal/mol
Translational entropy             ...      0.01730065 Eh     10.86 kcal/mol
-----------------------------------------------------------------------
Final entropy term                ...      0.02481979 Eh     15.57 kcal/mol

In case the symmetry of your molecule has not been determined correctly
or in case you have a reason to use a different symmetry number we print
out the resulting rotational entropy values for sn=1,12 :
 --------------------------------------------------------
|  sn= 1 | S(rot)=       0.00682952 Eh      4.29 kcal/mol|
|  sn= 2 | S(rot)=       0.00617507 Eh      3.87 kcal/mol|
|  sn= 3 | S(rot)=       0.00579224 Eh      3.63 kcal/mol|
|  sn= 4 | S(rot)=       0.00552061 Eh      3.46 kcal/mol|
|  sn= 5 | S(rot)=       0.00530992 Eh      3.33 kcal/mol|
|  sn= 6 | S(rot)=       0.00513778 Eh      3.22 kcal/mol|
|  sn= 7 | S(rot)=       0.00499223 Eh      3.13 kcal/mol|
|  sn= 8 | S(rot)=       0.00486616 Eh      3.05 kcal/mol|
|  sn= 9 | S(rot)=       0.00475495 Eh      2.98 kcal/mol|
|  sn=10 | S(rot)=       0.00465547 Eh      2.92 kcal/mol|
|  sn=11 | S(rot)=       0.00456548 Eh      2.86 kcal/mol|
|  sn=12 | S(rot)=       0.00448332 Eh      2.81 kcal/mol|
 --------------------------------------------------------

-------------------
GIBBS FREE ENERGY
-------------------

The Gibbs free energy is G = H - T*S

Total enthalpy                    ...   -341.20579517 Eh
Total entropy correction          ...     -0.02481979 Eh    -15.57 kcal/mol
-----------------------------------------------------------------------
Final Gibbs free energy         ...   -341.23061496 Eh

For completeness - the Gibbs free energy minus the electronic energy
G-E(el)                           ...     -0.00806370 Eh     -5.06 kcal/mol

                             ****ORCA TERMINATED NORMALLY****
TOTAL RUN TIME: 0 days 0 hours 1 minutes 25 seconds 473 msec
