                         Program Version 5.0.3 -  RELEASE  -
|  1> ! PBE0
|  2> %method
|  3>         method DFT
|  4>         runtyp Energy
|  5> end
|  6> %basis
|  7>         basis "def2-TZVP"
|  8> end
|  9> %coords
| 10>         CTyp xyz
| 11>         Charge 0
| 12>         Mult 1
| 13>         Units Angs
| 14>         coords
| 15> 	#13.3
| 16> 	C      0.901163    0.213223   -0.028373
| 17> 	C      2.433052    0.225083   -0.148833
| 18> 	H      0.601384   -0.022814    0.995131
| 19> 	H      0.472400   -0.536477   -0.697141
| 20> 	H      0.490726    1.190161   -0.293614
| 21> 	H      2.763812   -0.521759   -0.874150
| 22> 	H      2.781611    1.206533   -0.477840
| 23> 	H      2.892631   -0.000931    0.815945
| 24>         end
| 25> end
| 26>
| 27>                          ****END OF INPUT****

CARTESIAN COORDINATES (ANGSTROEM)
---------------------------------
  C      0.901163    0.213223   -0.028373
  C      2.433052    0.225083   -0.148833
  H      0.601384   -0.022814    0.995131
  H      0.472400   -0.536477   -0.697141
  H      0.490726    1.190161   -0.293614
  H      2.763812   -0.521759   -0.874150
  H      2.781611    1.206533   -0.477840
  H      2.892631   -0.000931    0.815945

 Total Charge           Charge          ....    0
 Multiplicity           Mult            ....    1
 Number of Electrons    NEL             ....   18
 Basis Dimension        Dim             ....   98

ORBITAL ENERGIES
----------------

  NO   OCC          E(Eh)            E(eV)
   0   2.0000     -10.206092      -277.7219
   1   2.0000     -10.205874      -277.7160
   2   2.0000      -0.773094       -21.0370
   3   2.0000      -0.630591       -17.1593
   4   2.0000      -0.449265       -12.2251
   5   2.0000      -0.449259       -12.2250
   6   2.0000      -0.373514       -10.1638
   7   2.0000      -0.351092        -9.5537
   8   2.0000      -0.351079        -9.5533
   9   0.0000       0.053326         1.4511
  10   0.0000       0.089284         2.4295
  11   0.0000       0.101453         2.7607
  12   0.0000       0.101468         2.7611
  13   0.0000       0.182684         4.9711

MULLIKEN ATOMIC CHARGES
-----------------------
   0 C :   -0.347567
   1 C :   -0.347139
   2 H :    0.115822
   3 H :    0.115764
   4 H :    0.115823
   5 H :    0.115721
   6 H :    0.115798
   7 H :    0.115778
Sum of atomic charges:   -0.0000000

LOEWDIN ATOMIC CHARGES
----------------------
   0 C :   -0.350208
   1 C :   -0.350185
   2 H :    0.116732
   3 H :    0.116737
   4 H :    0.116738
   5 H :    0.116746
   6 H :    0.116715
   7 H :    0.116725

  Mayer bond orders larger than 0.100000
B(  0-C ,  1-C ) :   0.9795 B(  0-C ,  2-H ) :   0.9767 B(  0-C ,  3-H ) :   0.9767
B(  0-C ,  4-H ) :   0.9767 B(  1-C ,  5-H ) :   0.9767 B(  1-C ,  6-H ) :   0.9767
B(  1-C ,  7-H ) :   0.9767

FINAL SINGLE POINT ENERGY       -79.745500733769

DIPOLE MOMENT
-------------
                                X             Y             Z
Electronic contribution:      0.00007       0.00003      -0.00003
Nuclear contribution   :     -0.00006      -0.00015      -0.00004
                        -----------------------------------------
Total Dipole Moment    :      0.00001      -0.00012      -0.00007
                        -----------------------------------------
Magnitude (a.u.)       :      0.00014
Magnitude (Debye)      :      0.00036

Rotational constants in cm-1:     2.659370     0.665332     0.665327
Rotational constants in MHz : 79725.896487 19946.151077 19946.016656

                             ****ORCA TERMINATED NORMALLY****
TOTAL RUN TIME: 0 days 0 hours 0 minutes 15 seconds 372 msec
