                         Program Version 5.0.3 -  RELEASE  -
|  1> ! PBE0 NumFreq
|  2> %method
|  3>         method DFT
|  4>         runtyp Energy
|  5> end
|  6> %basis
|  7>         basis "def2-TZVP"
|  8> end
|  9> %coords
| 10>         CTyp xyz
| 11>         Charge 0
| 12>         Mult 1
| 13>         Units Angs
| 14>         coords
| 15> 	#13.3
| 16> 	C      0.901163    0.213223   -0.028373
| 17> 	C      2.433052    0.225083   -0.148833
| 18> 	H      0.601384   -0.022814    0.995131
| 19> 	H      0.472400   -0.536477   -0.697141
| 20> 	H      0.490726    1.190161   -0.293614
| 21> 	H      2.763812   -0.521759   -0.874150
| 22> 	H      2.781611    1.206533   -0.477840
| 23> 	H      2.892631   -0.000931    0.815945
| 24>         end
| 25> end
| 26> %eprnmr
| 27>         NMRShielding 1
| 28>         Nuclei = all C {shift}
| 29>         Nuclei = all H {shift}
| 30> end
| 31>
| 32>                          ****END OF INPUT****

CARTESIAN COORDINATES (ANGSTROEM)
---------------------------------
  C      0.901163    0.213223   -0.028373
  C      2.433052    0.225083   -0.148833
  H      0.601384   -0.022814    0.995131
  H      0.472400   -0.536477   -0.697141
  H      0.490726    1.190161   -0.293614
  H      2.763812   -0.521759   -0.874150
  H      2.781611    1.206533   -0.477840
  H      2.892631   -0.000931    0.815945

 Total Charge           Charge          ....    0
 Multiplicity           Mult            ....    1
 Number of Electrons    NEL             ....   18
 Basis Dimension        Dim             ....   98

ORBITAL ENERGIES
----------------

  NO   OCC          E(Eh)            E(eV)
   0   2.0000     -10.206088      -277.7218
   1   2.0000     -10.205870      -277.7159
   2   2.0000      -0.773094       -21.0369
   3   2.0000      -0.630586       -17.1591
   4   2.0000      -0.449263       -12.2251
   5   2.0000      -0.449257       -12.2249
   6   2.0000      -0.373513       -10.1638
   7   2.0000      -0.351089        -9.5536
   8   2.0000      -0.351075        -9.5532
   9   0.0000       0.053327         1.4511
  10   0.0000       0.089286         2.4296
  11   0.0000       0.101453         2.7607
  12   0.0000       0.101469         2.7611
  13   0.0000       0.182686         4.9711

MULLIKEN ATOMIC CHARGES
-----------------------
   0 C :   -0.347589
   1 C :   -0.347167
   2 H :    0.115830
   3 H :    0.115770
   4 H :    0.115833
   5 H :    0.115728
   6 H :    0.115808
   7 H :    0.115786
Sum of atomic charges:   -0.0000000

LOEWDIN ATOMIC CHARGES
----------------------
   0 C :   -0.350211
   1 C :   -0.350188
   2 H :    0.116733
   3 H :    0.116738
   4 H :    0.116739
   5 H :    0.116746
   6 H :    0.116717
   7 H :    0.116726

  Mayer bond orders larger than 0.100000
B(  0-C ,  1-C ) :   0.9795 B(  0-C ,  2-H ) :   0.9767 B(  0-C ,  3-H ) :   0.9767
B(  0-C ,  4-H ) :   0.9767 B(  1-C ,  5-H ) :   0.9767 B(  1-C ,  6-H ) :   0.9767
B(  1-C ,  7-H ) :   0.9767

FINAL SINGLE POINT ENERGY       -79.745500733017

DIPOLE MOMENT
-------------
                                X             Y             Z
Electronic contribution:      0.00007       0.00003      -0.00003
Nuclear contribution   :     -0.00006      -0.00015      -0.00004
                        -----------------------------------------
Total Dipole Moment    :      0.00001      -0.00012      -0.00007
                        -----------------------------------------
Magnitude (a.u.)       :      0.00014
Magnitude (Debye)      :      0.00036

CHEMICAL SHIELDING SUMMARY (ppm)
--------------------------------

  Nucleus  Element    Isotropic     Anisotropy
  -------  -------  ------------   ------------
      0       C          183.660         20.016
      1       C          183.654         20.031
      2       H           30.788          9.196
      3       H           30.788          9.196
      4       H           30.787          9.196
      5       H           30.787          9.193
      6       H           30.789          9.194
      7       H           30.789          9.194

VIBRATIONAL FREQUENCIES
-----------------------

Scaling factor for frequencies =  1.000000000 (already applied!)

   0:         0.00 cm**-1
   1:         0.00 cm**-1
   2:         0.00 cm**-1
   3:         0.00 cm**-1
   4:         0.00 cm**-1
   5:         0.00 cm**-1
   6:      -251.33 cm**-1 ***imaginary mode***
   7:       916.97 cm**-1
   8:       917.50 cm**-1
   9:      1021.29 cm**-1
  10:      1180.70 cm**-1
  11:      1180.91 cm**-1
  12:      1386.73 cm**-1
  13:      1421.17 cm**-1
  14:      1491.28 cm**-1
  15:      1491.39 cm**-1
  16:      1503.18 cm**-1
  17:      1504.01 cm**-1
  18:      3041.08 cm**-1
  19:      3048.02 cm**-1
  20:      3110.94 cm**-1
  21:      3111.99 cm**-1
  22:      3134.23 cm**-1
  23:      3135.43 cm**-1

IR SPECTRUM
-----------

 Mode   freq       eps      Int      T**2         TX        TY        TZ
       cm**-1   L/(mol*cm) km/mol    a.u.
----------------------------------------------------------------------------
  7:    916.97   0.000708    3.58  0.000241  ( 0.000725 -0.013353  0.007878)
  8:    917.50   0.000878    4.44  0.000299  ( 0.001115  0.009816  0.014184)
  9:   1021.29   0.000000    0.00  0.000000  ( 0.000002  0.000088  0.000060)
 10:   1180.70   0.000000    0.00  0.000000  ( 0.000045 -0.000160 -0.000145)
 11:   1180.91   0.000000    0.00  0.000000  ( 0.000075 -0.000089  0.000101)
 12:   1386.73   0.000726    3.67  0.000163  (-0.012733 -0.000049  0.001094)
 13:   1421.17   0.000003    0.01  0.000001  (-0.000116 -0.000565 -0.000479)
 14:   1491.28   0.000001    0.00  0.000000  ( 0.000021  0.000433  0.000083)
 15:   1491.39   0.000000    0.00  0.000000  (-0.000262 -0.000052  0.000134)
 16:   1503.18   0.002209   11.17  0.000459  (-0.001404  0.013458 -0.016600)
 17:   1504.01   0.002633   13.31  0.000546  ( 0.000972  0.018148  0.014698)
 18:   3041.08   0.011079   55.99  0.001137  (-0.033620 -0.000216  0.002563)
 19:   3048.02   0.000016    0.08  0.000002  (-0.000592 -0.000872 -0.000734)
 20:   3110.94   0.000003    0.01  0.000000  ( 0.000502  0.000005  0.000066)
 21:   3111.99   0.000001    0.01  0.000000  (-0.000075  0.000301 -0.000206)
 22:   3134.23   0.008290   41.90  0.000825  (-0.001459 -0.021082 -0.019465)
 23:   3135.43   0.009085   45.91  0.000904  (-0.001865  0.020433 -0.021982)

--------------------------
THERMOCHEMISTRY AT 298.15K
--------------------------

Temperature         ... 298.15 K
Pressure            ... 1.00 atm
Total Mass          ... 30.07 AMU

Throughout the following assumptions are being made:
  (1) The electronic state is orbitally nondegenerate
  (2) There are no thermally accessible electronically excited states
  (3) Hindered rotations indicated by low frequency modes are not
      treated as such but are treated as vibrations and this may
      cause some error
  (4) All equations used are the standard statistical mechanics
      equations for an ideal gas
  (5) All vibrations are strictly harmonic

freq.     916.97  E(vib)   ...       0.03
freq.     917.50  E(vib)   ...       0.03
freq.    1021.29  E(vib)   ...       0.02
freq.    1180.70  E(vib)   ...       0.01
freq.    1180.91  E(vib)   ...       0.01
freq.    1386.73  E(vib)   ...       0.00
freq.    1421.17  E(vib)   ...       0.00
freq.    1491.28  E(vib)   ...       0.00
freq.    1491.39  E(vib)   ...       0.00
freq.    1503.18  E(vib)   ...       0.00
freq.    1504.01  E(vib)   ...       0.00
freq.    3041.08  E(vib)   ...       0.00
freq.    3048.02  E(vib)   ...       0.00
freq.    3110.94  E(vib)   ...       0.00
freq.    3111.99  E(vib)   ...       0.00
freq.    3134.23  E(vib)   ...       0.00
freq.    3135.43  E(vib)   ...       0.00

------------
INNER ENERGY
------------

The inner energy is: U= E(el) + E(ZPE) + E(vib) + E(rot) + E(trans)
    E(el)   - is the total energy from the electronic structure calculation
              = E(kin-el) + E(nuc-el) + E(el-el) + E(nuc-nuc)
    E(ZPE)  - the the zero temperature vibrational energy from the frequency calculation
    E(vib)  - the the finite temperature correction to E(ZPE) due to population
              of excited vibrational states
    E(rot)  - is the rotational thermal energy
    E(trans)- is the translational thermal energy

Summary of contributions to the inner energy U:
Electronic energy                ...    -79.74550073 Eh
Zero point energy                ...      0.07426106 Eh      46.60 kcal/mol
Thermal vibrational correction   ...      0.00020587 Eh       0.13 kcal/mol
Thermal rotational correction    ...      0.00141627 Eh       0.89 kcal/mol
Thermal translational correction ...      0.00141627 Eh       0.89 kcal/mol
-----------------------------------------------------------------------
Total thermal energy                    -79.66820127 Eh

Summary of corrections to the electronic energy:
(perhaps to be used in another calculation)
Total thermal correction                  0.00303841 Eh       1.91 kcal/mol
Non-thermal (ZPE) correction              0.07426106 Eh      46.60 kcal/mol
-----------------------------------------------------------------------
Total correction                          0.07729947 Eh      48.51 kcal/mol

--------
ENTHALPY
--------

The enthalpy is H = U + kB*T
                kB is Boltzmann's constant
Total free energy                 ...    -79.66820127 Eh
Thermal Enthalpy correction       ...      0.00094421 Eh       0.59 kcal/mol
-----------------------------------------------------------------------
Total Enthalpy                    ...    -79.66725706 Eh

Note: Rotational entropy computed according to Herzberg
Infrared and Raman Spectra, Chapter V,1, Van Nostrand Reinhold, 1945
Point Group:  C2, Symmetry Number:   2
Rotational constants in cm-1:     2.659370     0.665332     0.665327

Vibrational entropy computed according to the QRRHO of S. Grimme
Chem.Eur.J. 2012 18 9955

-------
ENTROPY
-------

The entropy contributions are T*S = T*(S(el)+S(vib)+S(rot)+S(trans))
     S(el)   - electronic entropy
     S(vib)  - vibrational entropy
     S(rot)  - rotational entropy
     S(trans)- translational entropy
The entropies will be listed as multiplied by the temperature to get
units of energy

Electronic entropy                ...      0.00000000 Eh      0.00 kcal/mol
Vibrational entropy               ...      0.00024682 Eh      0.15 kcal/mol
Rotational entropy                ...      0.00877934 Eh      5.51 kcal/mol
Translational entropy             ...      0.01716939 Eh     10.77 kcal/mol
-----------------------------------------------------------------------
Final entropy term                ...      0.02619554 Eh     16.44 kcal/mol

In case the symmetry of your molecule has not been determined correctly
or in case you have a reason to use a different symmetry number we print
out the resulting rotational entropy values for sn=1,12 :
 --------------------------------------------------------
|  sn= 1 | S(rot)=       0.00943379 Eh      5.92 kcal/mol|
|  sn= 2 | S(rot)=       0.00877934 Eh      5.51 kcal/mol|
|  sn= 3 | S(rot)=       0.00839650 Eh      5.27 kcal/mol|
|  sn= 4 | S(rot)=       0.00812488 Eh      5.10 kcal/mol|
|  sn= 5 | S(rot)=       0.00791419 Eh      4.97 kcal/mol|
|  sn= 6 | S(rot)=       0.00774205 Eh      4.86 kcal/mol|
|  sn= 7 | S(rot)=       0.00759650 Eh      4.77 kcal/mol|
|  sn= 8 | S(rot)=       0.00747042 Eh      4.69 kcal/mol|
|  sn= 9 | S(rot)=       0.00735921 Eh      4.62 kcal/mol|
|  sn=10 | S(rot)=       0.00725973 Eh      4.56 kcal/mol|
|  sn=11 | S(rot)=       0.00716974 Eh      4.50 kcal/mol|
|  sn=12 | S(rot)=       0.00708759 Eh      4.45 kcal/mol|
 --------------------------------------------------------

-------------------
GIBBS FREE ENERGY
-------------------

The Gibbs free energy is G = H - T*S

Total enthalpy                    ...    -79.66725706 Eh
Total entropy correction          ...     -0.02619554 Eh    -16.44 kcal/mol
-----------------------------------------------------------------------
Final Gibbs free energy         ...    -79.69345260 Eh

For completeness - the Gibbs free energy minus the electronic energy
G-E(el)                           ...      0.05204813 Eh     32.66 kcal/mol

                             ****ORCA TERMINATED NORMALLY****
TOTAL RUN TIME: 0 days 0 hours 16 minutes 4 seconds 605 msec
